LIG1_GMX.gro created by acpype (v: 2023.10.27) on Thu Jul 30 20:23:39 2026
 58
    1  LIG    N    1   0.036   6.624   6.605
    1  LIG    C    2   0.040   6.407   6.983
    1  LIG   C1    3   0.013   6.267   6.923
    1  LIG   C2    4   0.140   6.197   6.885
    1  LIG   C3    5   0.151   6.072   6.954
    1  LIG   C4    6   0.252   5.977   6.945
    1  LIG   C5    7   0.043   6.055   7.035
    1  LIG   C6    8   0.243   5.860   7.024
    1  LIG   C7    9   0.132   5.843   7.111
    1  LIG   C8   10   0.031   5.942   7.116
    1  LIG   C9   11  -0.053   6.170   7.027
    1  LIG  C10   12   0.341   5.659   6.931
    1  LIG  C11   13   0.030   5.634   7.179
    1  LIG  C12   14   0.022   6.521   6.880
    1  LIG  C13   15   0.155   6.557   6.812
    1  LIG  C14   16   0.133   6.668   6.708
    1  LIG  C15   17  -0.094   6.591   6.668
    1  LIG  C16   18  -0.079   6.479   6.771
    1  LIG  C17   19   0.015   6.731   6.503
    1  LIG  C18   20   0.132   6.736   6.407
    1  LIG  C19   21   0.263   6.748   6.456
    1  LIG  C20   22   0.370   6.759   6.367
    1  LIG  C21   23   0.347   6.757   6.229
    1  LIG  C22   24   0.217   6.744   6.180
    1  LIG  C23   25   0.110   6.734   6.269
    1  LIG    O   26   0.220   6.238   6.803
    1  LIG   O1   27   0.338   5.764   7.020
    1  LIG   O2   28   0.126   5.732   7.189
    1  LIG    H   29   0.075   6.539   6.557
    1  LIG  HC2   30   0.143   6.410   7.019
    1  LIG  HC3   31  -0.028   6.424   7.066
    1  LIG   HC   32  -0.052   6.276   6.835
    1  LIG  HC1   33   0.336   5.991   6.878
    1  LIG  HC4   34  -0.055   5.931   7.180
    1  LIG  HC5   35  -0.063   6.219   7.124
    1  LIG  HC6   36  -0.150   6.136   6.992
    1  LIG  HC7   37  -0.017   6.609   6.931
    1  LIG  HC8   38   0.196   6.468   6.763
    1  LIG  HC9   39   0.225   6.592   6.888
    1  LIG HC10   40   0.228   6.691   6.660
    1  LIG HC11   41   0.095   6.757   6.757
    1  LIG HC12   42  -0.133   6.680   6.718
    1  LIG HC13   43  -0.165   6.559   6.591
    1  LIG HC14   44  -0.044   6.389   6.721
    1  LIG HC15   45  -0.176   6.460   6.817
    1  LIG HC16   46   0.007   6.827   6.554
    1  LIG HC17   47  -0.076   6.711   6.448
    1  LIG HC18   48   0.282   6.748   6.562
    1  LIG HC19   49   0.471   6.770   6.404
    1  LIG HC20   50   0.430   6.766   6.160
    1  LIG HC21   51   0.199   6.740   6.073
    1  LIG HC22   52   0.009   6.725   6.231
    1  LIG HC23   53   0.428   5.596   6.950
    1  LIG HC24   54   0.345   5.698   6.829
    1  LIG HC25   55   0.250   5.599   6.942
    1  LIG HC26   56   0.049   5.556   7.253
    1  LIG HC27   57   0.033   5.590   7.079
    1  LIG HC28   58  -0.068   5.677   7.197
   12.94000    25.41600    23.60000
