LIG_GMX.gro created by acpype (v: 2023.10.27) on Thu Jul 30 19:45:35 2026
 35
    1  LIG    C    1   0.375   6.278   6.865
    1  LIG   C1    2   0.365   6.147   6.912
    1  LIG   C2    3   0.241   6.099   6.957
    1  LIG   C3    4   0.138   6.303   6.905
    1  LIG   C4    5   0.260   6.358   6.860
    1  LIG   C5    6   0.263   6.489   6.810
    1  LIG   C6    7   0.146   6.565   6.802
    1  LIG   C7    8   0.024   6.508   6.847
    1  LIG   C8    9   0.021   6.378   6.898
    1  LIG   C9   10   0.224   5.960   7.005
    1  LIG  C10   11   0.125   5.930   7.100
    1  LIG  C11   12   0.108   5.798   7.146
    1  LIG  C12   13   0.187   5.695   7.095
    1  LIG  C13   14   0.286   5.724   6.999
    1  LIG  C14   15   0.304   5.855   6.955
    1  LIG  C15   16   0.068   5.532   7.231
    1  LIG  C16   17   0.086   6.735   6.640
    1  LIG    O   18   0.483   6.320   6.828
    1  LIG   O1   19   0.134   6.179   6.953
    1  LIG   O2   20   0.166   5.568   7.140
    1  LIG   O3   21   0.153   6.691   6.752
    1  LIG   HC   22   0.452   6.083   6.915
    1  LIG  HC1   23   0.357   6.532   6.777
    1  LIG  HC2   24  -0.067   6.566   6.841
    1  LIG  HC3   25  -0.072   6.337   6.933
    1  LIG  HC4   26   0.062   6.008   7.139
    1  LIG  HC5   27   0.033   5.777   7.221
    1  LIG  HC6   28   0.347   5.645   6.958
    1  LIG  HC7   29   0.381   5.877   6.883
    1  LIG  HC8   30   0.072   5.424   7.248
    1  LIG  HC9   31   0.085   5.584   7.325
    1  LIG HC10   32  -0.030   5.559   7.191
    1  LIG HC11   33   0.110   6.840   6.622
    1  LIG HC12   34  -0.022   6.725   6.655
    1  LIG HC13   35   0.116   6.676   6.553
   11.10800    28.31200    15.42800
