; LIG_GMX.itp created by acpype (v: 2023.10.27) on Thu Jul 30 19:45:35 2026

[ atomtypes ]
;name   bond_type     mass     charge   ptype   sigma         epsilon       Amb
 c        c           0.00000  0.00000   A     3.31521e-01   4.13379e-01 ; 1.86  0.0988
 cc       cc          0.00000  0.00000   A     3.31521e-01   4.13379e-01 ; 1.86  0.0988
 cd       cd          0.00000  0.00000   A     3.31521e-01   4.13379e-01 ; 1.86  0.0988
 ca       ca          0.00000  0.00000   A     3.31521e-01   4.13379e-01 ; 1.86  0.0988
 c3       c3          0.00000  0.00000   A     3.39771e-01   4.51035e-01 ; 1.91  0.1078
 o        o           0.00000  0.00000   A     3.04812e-01   6.12119e-01 ; 1.71  0.1463
 os       os          0.00000  0.00000   A     3.15610e-01   3.03758e-01 ; 1.77  0.0726
 ha       ha          0.00000  0.00000   A     2.62548e-01   6.73624e-02 ; 1.47  0.0161
 h1       h1          0.00000  0.00000   A     2.42200e-01   8.70272e-02 ; 1.36  0.0208

[ moleculetype ]
;name            nrexcl
 LIG              3

[ atoms ]
;   nr  type  resi  res  atom  cgnr     charge      mass       ; qtot   bond_type
     1    c     1   LIG     C    1     0.588900     12.01000 ; qtot 0.589
     2   cc     1   LIG    C1    2    -0.329200     12.01000 ; qtot 0.260
     3   cd     1   LIG    C2    3     0.208900     12.01000 ; qtot 0.469
     4   ca     1   LIG    C3    4     0.106100     12.01000 ; qtot 0.575
     5   ca     1   LIG    C4    5    -0.180600     12.01000 ; qtot 0.394
     6   ca     1   LIG    C5    6    -0.075000     12.01000 ; qtot 0.319
     7   ca     1   LIG    C6    7     0.091100     12.01000 ; qtot 0.410
     8   ca     1   LIG    C7    8    -0.152000     12.01000 ; qtot 0.258
     9   ca     1   LIG    C8    9    -0.125000     12.01000 ; qtot 0.133
    10   ca     1   LIG    C9   10    -0.117800     12.01000 ; qtot 0.015
    11   ca     1   LIG   C10   11    -0.057500     12.01000 ; qtot -0.042
    12   ca     1   LIG   C11   12    -0.189000     12.01000 ; qtot -0.231
    13   ca     1   LIG   C12   13     0.148100     12.01000 ; qtot -0.083
    14   ca     1   LIG   C13   14    -0.189000     12.01000 ; qtot -0.272
    15   ca     1   LIG   C14   15    -0.057500     12.01000 ; qtot -0.330
    16   c3     1   LIG   C15   16     0.111700     12.01000 ; qtot -0.218
    17   c3     1   LIG   C16   17     0.112700     12.01000 ; qtot -0.105
    18    o     1   LIG     O   18    -0.542100     16.00000 ; qtot -0.647
    19   os     1   LIG    O1   19    -0.227200     16.00000 ; qtot -0.874
    20   os     1   LIG    O2   20    -0.322900     16.00000 ; qtot -1.197
    21   os     1   LIG    O3   21    -0.320900     16.00000 ; qtot -1.518
    22   ha     1   LIG    HC   22     0.168000      1.00800 ; qtot -1.350
    23   ha     1   LIG   HC1   23     0.177000      1.00800 ; qtot -1.173
    24   ha     1   LIG   HC2   24     0.145000      1.00800 ; qtot -1.028
    25   ha     1   LIG   HC3   25     0.154000      1.00800 ; qtot -0.874
    26   ha     1   LIG   HC4   26     0.147500      1.00800 ; qtot -0.727
    27   ha     1   LIG   HC5   27     0.149500      1.00800 ; qtot -0.577
    28   ha     1   LIG   HC6   28     0.149500      1.00800 ; qtot -0.428
    29   ha     1   LIG   HC7   29     0.147500      1.00800 ; qtot -0.280
    30   h1     1   LIG   HC8   30     0.048033      1.00800 ; qtot -0.232
    31   h1     1   LIG   HC9   31     0.048033      1.00800 ; qtot -0.184
    32   h1     1   LIG  HC10   32     0.048033      1.00800 ; qtot -0.136
    33   h1     1   LIG  HC11   33     0.045367      1.00800 ; qtot -0.091
    34   h1     1   LIG  HC12   34     0.045367      1.00800 ; qtot -0.045
    35   h1     1   LIG  HC13   35     0.045367      1.00800 ; qtot -0.000

[ bonds ]
;   ai     aj funct   r             k
     1      2   1    1.4687e-01    2.3579e+05 ;      C - C1    
     1      5   1    1.4907e-01    2.1994e+05 ;      C - C4    
     1     18   1    1.2190e-01    4.9421e+05 ;      C - O     
     2      3   1    1.3730e-01    3.2321e+05 ;     C1 - C2    
     2     22   1    1.0838e-01    3.0470e+05 ;     C1 - HC    
     3     10   1    1.4610e-01    2.4166e+05 ;     C2 - C9    
     3     19   1    1.3608e-01    2.9530e+05 ;     C2 - O1    
     4      5   1    1.3986e-01    2.9644e+05 ;     C3 - C4    
     4      9   1    1.3986e-01    2.9644e+05 ;     C3 - C8    
     4     19   1    1.3688e-01    2.8731e+05 ;     C3 - O1    
     5      6   1    1.3986e-01    2.9644e+05 ;     C4 - C5    
     6      7   1    1.3986e-01    2.9644e+05 ;     C5 - C6    
     6     23   1    1.0860e-01    3.0183e+05 ;     C5 - HC1   
     7      8   1    1.3986e-01    2.9644e+05 ;     C6 - C7    
     7     21   1    1.3688e-01    2.8731e+05 ;     C6 - O3    
     8      9   1    1.3986e-01    2.9644e+05 ;     C7 - C8    
     8     24   1    1.0860e-01    3.0183e+05 ;     C7 - HC2   
     9     25   1    1.0860e-01    3.0183e+05 ;     C8 - HC3   
    10     11   1    1.3986e-01    2.9644e+05 ;     C9 - C10   
    10     15   1    1.3986e-01    2.9644e+05 ;     C9 - C14   
    11     12   1    1.3986e-01    2.9644e+05 ;    C10 - C11   
    11     26   1    1.0860e-01    3.0183e+05 ;    C10 - HC4   
    12     13   1    1.3986e-01    2.9644e+05 ;    C11 - C12   
    12     27   1    1.0860e-01    3.0183e+05 ;    C11 - HC5   
    13     14   1    1.3986e-01    2.9644e+05 ;    C12 - C13   
    13     20   1    1.3688e-01    2.8731e+05 ;    C12 - O2    
    14     15   1    1.3986e-01    2.9644e+05 ;    C13 - C14   
    14     28   1    1.0860e-01    3.0183e+05 ;    C13 - HC6   
    15     29   1    1.0860e-01    3.0183e+05 ;    C14 - HC7   
    16     20   1    1.4273e-01    2.3620e+05 ;    C15 - O2    
    16     30   1    1.0969e-01    2.8804e+05 ;    C15 - HC8   
    16     31   1    1.0969e-01    2.8804e+05 ;    C15 - HC9   
    16     32   1    1.0969e-01    2.8804e+05 ;    C15 - HC10  
    17     21   1    1.4273e-01    2.3620e+05 ;    C16 - O3    
    17     33   1    1.0969e-01    2.8804e+05 ;    C16 - HC11  
    17     34   1    1.0969e-01    2.8804e+05 ;    C16 - HC12  
    17     35   1    1.0969e-01    2.8804e+05 ;    C16 - HC13  

[ pairs ]
;   ai     aj    funct
     1      7      1 ;      C - C6    
     1      9      1 ;      C - C8    
     1     10      1 ;      C - C9    
     1     19      1 ;      C - O1    
     1     23      1 ;      C - HC1   
     2      4      1 ;     C1 - C3    
     2      6      1 ;     C1 - C5    
     2     11      1 ;     C1 - C10   
     2     15      1 ;     C1 - C14   
     3      9      1 ;     C2 - C8    
     3     12      1 ;     C2 - C11   
     3     14      1 ;     C2 - C13   
     3     26      1 ;     C2 - HC4   
     3     29      1 ;     C2 - HC7   
     4      7      1 ;     C3 - C6    
     4     10      1 ;     C3 - C9    
     4     23      1 ;     C3 - HC1   
     4     24      1 ;     C3 - HC2   
     5      3      1 ;     C4 - C2    
     5      8      1 ;     C4 - C7    
     5     21      1 ;     C4 - O3    
     5     22      1 ;     C4 - HC    
     5     25      1 ;     C4 - HC3   
     6      9      1 ;     C5 - C8    
     6     17      1 ;     C5 - C16   
     6     19      1 ;     C5 - O1    
     6     24      1 ;     C5 - HC2   
     7     25      1 ;     C6 - HC3   
     7     33      1 ;     C6 - HC11  
     7     34      1 ;     C6 - HC12  
     7     35      1 ;     C6 - HC13  
     8     17      1 ;     C7 - C16   
     8     19      1 ;     C7 - O1    
     8     23      1 ;     C7 - HC1   
     9     21      1 ;     C8 - O3    
    10     13      1 ;     C9 - C12   
    10     22      1 ;     C9 - HC    
    10     27      1 ;     C9 - HC5   
    10     28      1 ;     C9 - HC6   
    11     14      1 ;    C10 - C13   
    11     19      1 ;    C10 - O1    
    11     20      1 ;    C10 - O2    
    11     29      1 ;    C10 - HC7   
    12     15      1 ;    C11 - C14   
    12     16      1 ;    C11 - C15   
    12     28      1 ;    C11 - HC6   
    13     26      1 ;    C12 - HC4   
    13     29      1 ;    C12 - HC7   
    13     30      1 ;    C12 - HC8   
    13     31      1 ;    C12 - HC9   
    13     32      1 ;    C12 - HC10  
    14     16      1 ;    C13 - C15   
    14     27      1 ;    C13 - HC5   
    15     19      1 ;    C14 - O1    
    15     20      1 ;    C14 - O2    
    15     26      1 ;    C14 - HC4   
    18      3      1 ;      O - C2    
    18      4      1 ;      O - C3    
    18      6      1 ;      O - C5    
    18     22      1 ;      O - HC    
    19     22      1 ;     O1 - HC    
    19     25      1 ;     O1 - HC3   
    20     27      1 ;     O2 - HC5   
    20     28      1 ;     O2 - HC6   
    21     23      1 ;     O3 - HC1   
    21     24      1 ;     O3 - HC2   
    24     25      1 ;    HC2 - HC3   
    26     27      1 ;    HC4 - HC5   
    28     29      1 ;    HC6 - HC7   

[ angles ]
;   ai     aj     ak    funct   theta         cth
     1      2      3      1    1.2132e+02    5.2049e+02 ;      C - C1     - C2    
     1      2     22      1    1.1681e+02    3.6543e+02 ;      C - C1     - HC    
     1      5      4      1    1.2033e+02    5.1413e+02 ;      C - C4     - C3    
     1      5      6      1    1.2033e+02    5.1413e+02 ;      C - C4     - C5    
     2      1      5      1    1.1533e+02    5.1371e+02 ;     C1 - C      - C4    
     2      1     18      1    1.2406e+02    6.5572e+02 ;     C1 - C      - O     
     2      3     10      1    1.2429e+02    5.1580e+02 ;     C1 - C2     - C9    
     2      3     19      1    1.1671e+02    6.7613e+02 ;     C1 - C2     - O1    
     3      2     22      1    1.2140e+02    3.7907e+02 ;     C2 - C1     - HC    
     3     10     11      1    1.2083e+02    5.1898e+02 ;     C2 - C9     - C10   
     3     10     15      1    1.2083e+02    5.1898e+02 ;     C2 - C9     - C14   
     3     19      4      1    1.1986e+02    7.5253e+02 ;     C2 - O1     - C3    
     4      5      6      1    1.2002e+02    5.3279e+02 ;     C3 - C4     - C5    
     4      9      8      1    1.2002e+02    5.3279e+02 ;     C3 - C8     - C7    
     4      9     25      1    1.1988e+02    3.7572e+02 ;     C3 - C8     - HC3   
     5      1     18      1    1.2260e+02    6.5237e+02 ;     C4 - C      - O     
     5      4      9      1    1.2002e+02    5.3279e+02 ;     C4 - C3     - C8    
     5      4     19      1    1.1911e+02    6.6107e+02 ;     C4 - C3     - O1    
     5      6      7      1    1.2002e+02    5.3279e+02 ;     C4 - C5     - C6    
     5      6     23      1    1.1988e+02    3.7572e+02 ;     C4 - C5     - HC1   
     6      7      8      1    1.2002e+02    5.3279e+02 ;     C5 - C6     - C7    
     6      7     21      1    1.1911e+02    6.6107e+02 ;     C5 - C6     - O3    
     7      6     23      1    1.1988e+02    3.7572e+02 ;     C6 - C5     - HC1   
     7      8      9      1    1.2002e+02    5.3279e+02 ;     C6 - C7     - C8    
     7      8     24      1    1.1988e+02    3.7572e+02 ;     C6 - C7     - HC2   
     7     21     17      1    1.1839e+02    7.3856e+02 ;     C6 - O3     - C16   
     8      7     21      1    1.1911e+02    6.6107e+02 ;     C7 - C6     - O3    
     8      9     25      1    1.1988e+02    3.7572e+02 ;     C7 - C8     - HC3   
     9      4     19      1    1.1911e+02    6.6107e+02 ;     C8 - C3     - O1    
     9      8     24      1    1.1988e+02    3.7572e+02 ;     C8 - C7     - HC2   
    10      3     19      1    1.1368e+02    6.6208e+02 ;     C9 - C2     - O1    
    10     11     12      1    1.2002e+02    5.3279e+02 ;     C9 - C10    - C11   
    10     11     26      1    1.1988e+02    3.7572e+02 ;     C9 - C10    - HC4   
    10     15     14      1    1.2002e+02    5.3279e+02 ;     C9 - C14    - C13   
    10     15     29      1    1.1988e+02    3.7572e+02 ;     C9 - C14    - HC7   
    11     10     15      1    1.2002e+02    5.3279e+02 ;    C10 - C9     - C14   
    11     12     13      1    1.2002e+02    5.3279e+02 ;    C10 - C11    - C12   
    11     12     27      1    1.1988e+02    3.7572e+02 ;    C10 - C11    - HC5   
    12     11     26      1    1.1988e+02    3.7572e+02 ;    C11 - C10    - HC4   
    12     13     14      1    1.2002e+02    5.3279e+02 ;    C11 - C12    - C13   
    12     13     20      1    1.1911e+02    6.6107e+02 ;    C11 - C12    - O2    
    13     12     27      1    1.1988e+02    3.7572e+02 ;    C12 - C11    - HC5   
    13     14     15      1    1.2002e+02    5.3279e+02 ;    C12 - C13    - C14   
    13     14     28      1    1.1988e+02    3.7572e+02 ;    C12 - C13    - HC6   
    13     20     16      1    1.1839e+02    7.3856e+02 ;    C12 - O2     - C15   
    14     13     20      1    1.1911e+02    6.6107e+02 ;    C13 - C12    - O2    
    14     15     29      1    1.1988e+02    3.7572e+02 ;    C13 - C14    - HC7   
    15     14     28      1    1.1988e+02    3.7572e+02 ;    C14 - C13    - HC6   
    20     16     30      1    1.1034e+02    4.7028e+02 ;     O2 - C15    - HC8   
    20     16     31      1    1.1034e+02    4.7028e+02 ;     O2 - C15    - HC9   
    20     16     32      1    1.1034e+02    4.7028e+02 ;     O2 - C15    - HC10  
    21     17     33      1    1.1034e+02    4.7028e+02 ;     O3 - C16    - HC11  
    21     17     34      1    1.1034e+02    4.7028e+02 ;     O3 - C16    - HC12  
    21     17     35      1    1.1034e+02    4.7028e+02 ;     O3 - C16    - HC13  
    30     16     31      1    1.0855e+02    2.9824e+02 ;    HC8 - C15    - HC9   
    30     16     32      1    1.0855e+02    2.9824e+02 ;    HC8 - C15    - HC10  
    31     16     32      1    1.0855e+02    2.9824e+02 ;    HC9 - C15    - HC10  
    33     17     34      1    1.0855e+02    2.9824e+02 ;   HC11 - C16    - HC12  
    33     17     35      1    1.0855e+02    2.9824e+02 ;   HC11 - C16    - HC13  
    34     17     35      1    1.0855e+02    2.9824e+02 ;   HC12 - C16    - HC13  

[ dihedrals ] ; propers
; for gromacs 4.5 or higher, using funct 9
;    i      j      k      l   func   phase     kd      pn
     1      2      3     10      9   180.00  16.73600   2 ;      C-    C1-    C2-    C9
     1      2      3     19      9   180.00  16.73600   2 ;      C-    C1-    C2-    O1
     1      5      4      9      9   180.00  15.16700   2 ;      C-    C4-    C3-    C8
     1      5      4     19      9   180.00  15.16700   2 ;      C-    C4-    C3-    O1
     1      5      6      7      9   180.00  15.16700   2 ;      C-    C4-    C5-    C6
     1      5      6     23      9   180.00  15.16700   2 ;      C-    C4-    C5-   HC1
     2      1      5      4      9   180.00   7.93914   2 ;     C1-     C-    C4-    C3
     2      1      5      6      9   180.00   7.93914   2 ;     C1-     C-    C4-    C5
     2      3     10     11      9   180.00  15.77368   2 ;     C1-    C2-    C9-   C10
     2      3     10     15      9   180.00  15.77368   2 ;     C1-    C2-    C9-   C14
     2      3     19      4      9   180.00   2.71960   1 ;     C1-    C2-    O1-    C3
     3     10     11     12      9   180.00  15.16700   2 ;     C2-    C9-   C10-   C11
     3     10     11     26      9   180.00  15.16700   2 ;     C2-    C9-   C10-   HC4
     3     10     15     14      9   180.00  15.16700   2 ;     C2-    C9-   C14-   C13
     3     10     15     29      9   180.00  15.16700   2 ;     C2-    C9-   C14-   HC7
     3     19      4      5      9   180.00   3.76560   2 ;     C2-    O1-    C3-    C4
     3     19      4      9      9   180.00   3.76560   2 ;     C2-    O1-    C3-    C8
     4      5      6      7      9   180.00  15.16700   2 ;     C3-    C4-    C5-    C6
     4      5      6     23      9   180.00  15.16700   2 ;     C3-    C4-    C5-   HC1
     4      9      8      7      9   180.00  15.16700   2 ;     C3-    C8-    C7-    C6
     4      9      8     24      9   180.00  15.16700   2 ;     C3-    C8-    C7-   HC2
     4     19      3     10      9   180.00   2.71960   1 ;     C3-    O1-    C2-    C9
     5      1      2      3      9     0.00   8.89100   2 ;     C4-     C-    C1-    C2
     5      1      2      3      9   180.00   1.04600   3 ;     C4-     C-    C1-    C2
     5      1      2      3      9   180.00  14.56032   1 ;     C4-     C-    C1-    C2
     5      1      2     22      9   180.00  12.02900   2 ;     C4-     C-    C1-    HC
     5      4      9      8      9   180.00  15.16700   2 ;     C4-    C3-    C8-    C7
     5      4      9     25      9   180.00  15.16700   2 ;     C4-    C3-    C8-   HC3
     5      6      7      8      9   180.00  15.16700   2 ;     C4-    C5-    C6-    C7
     5      6      7     21      9   180.00  15.16700   2 ;     C4-    C5-    C6-    O3
     6      5      4      9      9   180.00  15.16700   2 ;     C5-    C4-    C3-    C8
     6      5      4     19      9   180.00  15.16700   2 ;     C5-    C4-    C3-    O1
     6      7      8      9      9   180.00  15.16700   2 ;     C5-    C6-    C7-    C8
     6      7      8     24      9   180.00  15.16700   2 ;     C5-    C6-    C7-   HC2
     6      7     21     17      9   180.00   6.94544   2 ;     C5-    C6-    O3-   C16
     7      8      9     25      9   180.00  15.16700   2 ;     C6-    C7-    C8-   HC3
     7     21     17     33      9     0.00   1.60387   3 ;     C6-    O3-   C16-  HC11
     7     21     17     34      9     0.00   1.60387   3 ;     C6-    O3-   C16-  HC12
     7     21     17     35      9     0.00   1.60387   3 ;     C6-    O3-   C16-  HC13
     8      7      6     23      9   180.00  15.16700   2 ;     C7-    C6-    C5-   HC1
     8      7     21     17      9   180.00   6.94544   2 ;     C7-    C6-    O3-   C16
     8      9      4     19      9   180.00  15.16700   2 ;     C7-    C8-    C3-    O1
     9      8      7     21      9   180.00  15.16700   2 ;     C8-    C7-    C6-    O3
    10      3      2     22      9   180.00  16.73600   2 ;     C9-    C2-    C1-    HC
    10     11     12     13      9   180.00  15.16700   2 ;     C9-   C10-   C11-   C12
    10     11     12     27      9   180.00  15.16700   2 ;     C9-   C10-   C11-   HC5
    10     15     14     13      9   180.00  15.16700   2 ;     C9-   C14-   C13-   C12
    10     15     14     28      9   180.00  15.16700   2 ;     C9-   C14-   C13-   HC6
    11     10      3     19      9   180.00   2.92880   2 ;    C10-    C9-    C2-    O1
    11     10     15     14      9   180.00  15.16700   2 ;    C10-    C9-   C14-   C13
    11     10     15     29      9   180.00  15.16700   2 ;    C10-    C9-   C14-   HC7
    11     12     13     14      9   180.00  15.16700   2 ;    C10-   C11-   C12-   C13
    11     12     13     20      9   180.00  15.16700   2 ;    C10-   C11-   C12-    O2
    12     11     10     15      9   180.00  15.16700   2 ;    C11-   C10-    C9-   C14
    12     13     14     15      9   180.00  15.16700   2 ;    C11-   C12-   C13-   C14
    12     13     14     28      9   180.00  15.16700   2 ;    C11-   C12-   C13-   HC6
    12     13     20     16      9   180.00   6.94544   2 ;    C11-   C12-    O2-   C15
    13     12     11     26      9   180.00  15.16700   2 ;    C12-   C11-   C10-   HC4
    13     14     15     29      9   180.00  15.16700   2 ;    C12-   C13-   C14-   HC7
    13     20     16     30      9     0.00   1.60387   3 ;    C12-    O2-   C15-   HC8
    13     20     16     31      9     0.00   1.60387   3 ;    C12-    O2-   C15-   HC9
    13     20     16     32      9     0.00   1.60387   3 ;    C12-    O2-   C15-  HC10
    14     13     12     27      9   180.00  15.16700   2 ;    C13-   C12-   C11-   HC5
    14     13     20     16      9   180.00   6.94544   2 ;    C13-   C12-    O2-   C15
    15     10      3     19      9   180.00   2.92880   2 ;    C14-    C9-    C2-    O1
    15     10     11     26      9   180.00  15.16700   2 ;    C14-    C9-   C10-   HC4
    15     14     13     20      9   180.00  15.16700   2 ;    C14-   C13-   C12-    O2
    18      1      2      3      9   180.00  12.02900   2 ;      O-     C-    C1-    C2
    18      1      2     22      9   180.00  12.02900   2 ;      O-     C-    C1-    HC
    18      1      5      4      9   180.00   2.42672   2 ;      O-     C-    C4-    C3
    18      1      5      6      9   180.00   2.42672   2 ;      O-     C-    C4-    C5
    19      3      2     22      9   180.00  16.73600   2 ;     O1-    C2-    C1-    HC
    19      4      9     25      9   180.00  15.16700   2 ;     O1-    C3-    C8-   HC3
    20     13     12     27      9   180.00  15.16700   2 ;     O2-   C12-   C11-   HC5
    20     13     14     28      9   180.00  15.16700   2 ;     O2-   C12-   C13-   HC6
    21      7      6     23      9   180.00  15.16700   2 ;     O3-    C6-    C5-   HC1
    21      7      8     24      9   180.00  15.16700   2 ;     O3-    C6-    C7-   HC2
    24      8      9     25      9   180.00  15.16700   2 ;    HC2-    C7-    C8-   HC3
    26     11     12     27      9   180.00  15.16700   2 ;    HC4-   C10-   C11-   HC5
    28     14     15     29      9   180.00  15.16700   2 ;    HC6-   C13-   C14-   HC7

[ dihedrals ] ; impropers
; treated as propers in GROMACS to use correct AMBER analytical function
;    i      j      k      l   func   phase     kd      pn
     1      3      2     22      4   180.00   4.60240   2 ;      C-    C2-    C1-    HC
     1      4      5      6      4   180.00   4.60240   2 ;      C-    C3-    C4-    C5
     4      8      9     25      4   180.00   4.60240   2 ;     C3-    C7-    C8-   HC3
     5      7      6     23      4   180.00   4.60240   2 ;     C4-    C6-    C5-   HC1
     5      9      4     19      4   180.00   4.60240   2 ;     C4-    C8-    C3-    O1
     6      8      7     21      4   180.00   4.60240   2 ;     C5-    C7-    C6-    O3
     7      9      8     24      4   180.00   4.60240   2 ;     C6-    C8-    C7-   HC2
    10      2      3     19      4   180.00   4.60240   2 ;     C9-    C1-    C2-    O1
    10     12     11     26      4   180.00   4.60240   2 ;     C9-   C11-   C10-   HC4
    10     14     15     29      4   180.00   4.60240   2 ;     C9-   C13-   C14-   HC7
    11     13     12     27      4   180.00   4.60240   2 ;    C10-   C12-   C11-   HC5
    11     15     10      3      4   180.00   4.60240   2 ;    C10-   C14-    C9-    C2
    12     14     13     20      4   180.00   4.60240   2 ;    C11-   C13-   C12-    O2
    13     15     14     28      4   180.00   4.60240   2 ;    C12-   C14-   C13-   HC6
    18      1      2      5      4   180.00  43.93200   2 ;      O-     C-    C1-    C4
