LIG_GMX.gro created by acpype (v: 2023.10.27) on Thu Jul 30 19:54:57 2026
 47
    1  LIG    C    1   0.411   6.184   6.928
    1  LIG   C1    2   0.418   6.276   6.823
    1  LIG   C2    3   0.300   6.333   6.772
    1  LIG   C3    4   0.171   6.208   6.922
    1  LIG   C4    5   0.285   6.148   6.979
    1  LIG   C5    6   0.271   6.055   7.083
    1  LIG   C6    7   0.143   6.020   7.130
    1  LIG   C7    8   0.131   5.920   7.241
    1  LIG   C8    9   0.028   6.078   7.071
    1  LIG   C9   10  -0.110   6.041   7.116
    1  LIG  C10   11   0.044   6.173   6.968
    1  LIG  C11   12   0.302   6.433   6.662
    1  LIG  C12   13   0.232   6.555   6.671
    1  LIG  C13   14   0.236   6.647   6.563
    1  LIG  C14   15   0.162   6.778   6.574
    1  LIG  C15   16   0.312   6.616   6.447
    1  LIG  C16   17   0.317   6.714   6.332
    1  LIG  C17   18   0.383   6.494   6.440
    1  LIG  C18   19   0.378   6.404   6.548
    1  LIG  C19   20   0.032   6.565   6.796
    1  LIG  C20   21   0.445   6.349   6.254
    1  LIG    O   22   0.513   6.136   6.974
    1  LIG   O1   23   0.182   6.298   6.825
    1  LIG   O2   24   0.167   6.589   6.784
    1  LIG   O3   25   0.455   6.466   6.328
    1  LIG   HC   26   0.514   6.303   6.781
    1  LIG  HC1   27   0.359   6.010   7.127
    1  LIG  HC2   28  -0.044   6.218   6.924
    1  LIG  HC3   29   0.434   6.312   6.543
    1  LIG  HC4   30   0.514   6.354   6.169
    1  LIG  HC5   31   0.470   6.264   6.317
    1  LIG  HC6   32   0.343   6.338   6.216
    1  LIG  HC7   33   0.111   6.784   6.670
    1  LIG  HC8   34   0.233   6.861   6.565
    1  LIG  HC9   35   0.089   6.785   6.493
    1  LIG HC10   36  -0.184   6.096   7.058
    1  LIG HC11   37  -0.122   6.065   7.222
    1  LIG HC12   38  -0.125   5.934   7.102
    1  LIG HC13   39   0.378   6.673   6.252
    1  LIG HC14   40   0.360   6.808   6.366
    1  LIG HC15   41   0.216   6.731   6.295
    1  LIG HC16   42   0.231   5.888   7.273
    1  LIG HC17   43   0.075   5.833   7.207
    1  LIG HC18   44   0.079   5.966   7.326
    1  LIG HC19   45  -0.002   6.599   6.894
    1  LIG HC20   46   0.012   6.458   6.786
    1  LIG HC21   47  -0.022   6.620   6.719
   13.96200    20.55200    23.12400
