; LIG_GMX.itp created by acpype (v: 2023.10.27) on Thu Jul 30 19:54:57 2026

[ atomtypes ]
;name   bond_type     mass     charge   ptype   sigma         epsilon       Amb
 c        c           0.00000  0.00000   A     3.31521e-01   4.13379e-01 ; 1.86  0.0988
 cc       cc          0.00000  0.00000   A     3.31521e-01   4.13379e-01 ; 1.86  0.0988
 cd       cd          0.00000  0.00000   A     3.31521e-01   4.13379e-01 ; 1.86  0.0988
 ca       ca          0.00000  0.00000   A     3.31521e-01   4.13379e-01 ; 1.86  0.0988
 c3       c3          0.00000  0.00000   A     3.39771e-01   4.51035e-01 ; 1.91  0.1078
 o        o           0.00000  0.00000   A     3.04812e-01   6.12119e-01 ; 1.71  0.1463
 os       os          0.00000  0.00000   A     3.15610e-01   3.03758e-01 ; 1.77  0.0726
 ha       ha          0.00000  0.00000   A     2.62548e-01   6.73624e-02 ; 1.47  0.0161
 h1       h1          0.00000  0.00000   A     2.42200e-01   8.70272e-02 ; 1.36  0.0208
 hc       hc          0.00000  0.00000   A     2.60018e-01   8.70272e-02 ; 1.46  0.0208

[ moleculetype ]
;name            nrexcl
 LIG              3

[ atoms ]
;   nr  type  resi  res  atom  cgnr     charge      mass       ; qtot   bond_type
     1    c     1   LIG     C    1     0.591899     12.01000 ; qtot 0.592
     2   cc     1   LIG    C1    2    -0.319200     12.01000 ; qtot 0.273
     3   cd     1   LIG    C2    3     0.208900     12.01000 ; qtot 0.482
     4   ca     1   LIG    C3    4     0.143100     12.01000 ; qtot 0.625
     5   ca     1   LIG    C4    5    -0.215600     12.01000 ; qtot 0.409
     6   ca     1   LIG    C5    6    -0.045000     12.01000 ; qtot 0.364
     7   ca     1   LIG    C6    7    -0.113300     12.01000 ; qtot 0.251
     8   c3     1   LIG    C7    8    -0.049800     12.01000 ; qtot 0.201
     9   ca     1   LIG    C8    9    -0.023300     12.01000 ; qtot 0.178
    10   c3     1   LIG    C9   10    -0.059800     12.01000 ; qtot 0.118
    11   ca     1   LIG   C10   11    -0.161000     12.01000 ; qtot -0.043
    12   ca     1   LIG   C11   12    -0.055800     12.01000 ; qtot -0.099
    13   ca     1   LIG   C12   13     0.104100     12.01000 ; qtot 0.005
    14   ca     1   LIG   C13   14    -0.071300     12.01000 ; qtot -0.066
    15   c3     1   LIG   C14   15    -0.057800     12.01000 ; qtot -0.124
    16   ca     1   LIG   C15   16    -0.070300     12.01000 ; qtot -0.194
    17   c3     1   LIG   C16   17    -0.051800     12.01000 ; qtot -0.246
    18   ca     1   LIG   C17   18     0.117100     12.01000 ; qtot -0.129
    19   ca     1   LIG   C18   19    -0.172000     12.01000 ; qtot -0.301
    20   c3     1   LIG   C19   20     0.115700     12.01000 ; qtot -0.185
    21   c3     1   LIG   C20   21     0.111700     12.01000 ; qtot -0.074
    22    o     1   LIG     O   22    -0.549100     16.00000 ; qtot -0.623
    23   os     1   LIG    O1   23    -0.218200     16.00000 ; qtot -0.841
    24   os     1   LIG    O2   24    -0.337900     16.00000 ; qtot -1.179
    25   os     1   LIG    O3   25    -0.325900     16.00000 ; qtot -1.505
    26   ha     1   LIG    HC   26     0.169000      1.00800 ; qtot -1.336
    27   ha     1   LIG   HC1   27     0.160000      1.00800 ; qtot -1.176
    28   ha     1   LIG   HC2   28     0.150000      1.00800 ; qtot -1.026
    29   ha     1   LIG   HC3   29     0.150000      1.00800 ; qtot -0.876
    30   h1     1   LIG   HC4   30     0.047033      1.00800 ; qtot -0.829
    31   h1     1   LIG   HC5   31     0.047033      1.00800 ; qtot -0.782
    32   h1     1   LIG   HC6   32     0.047033      1.00800 ; qtot -0.735
    33   hc     1   LIG   HC7   33     0.052700      1.00800 ; qtot -0.682
    34   hc     1   LIG   HC8   34     0.052700      1.00800 ; qtot -0.629
    35   hc     1   LIG   HC9   35     0.052700      1.00800 ; qtot -0.576
    36   hc     1   LIG  HC10   36     0.050367      1.00800 ; qtot -0.526
    37   hc     1   LIG  HC11   37     0.050367      1.00800 ; qtot -0.476
    38   hc     1   LIG  HC12   38     0.050367      1.00800 ; qtot -0.425
    39   hc     1   LIG  HC13   39     0.052367      1.00800 ; qtot -0.373
    40   hc     1   LIG  HC14   40     0.052367      1.00800 ; qtot -0.321
    41   hc     1   LIG  HC15   41     0.052367      1.00800 ; qtot -0.268
    42   hc     1   LIG  HC16   42     0.046033      1.00800 ; qtot -0.222
    43   hc     1   LIG  HC17   43     0.046033      1.00800 ; qtot -0.176
    44   hc     1   LIG  HC18   44     0.046033      1.00800 ; qtot -0.130
    45   h1     1   LIG  HC19   45     0.043367      1.00800 ; qtot -0.087
    46   h1     1   LIG  HC20   46     0.043367      1.00800 ; qtot -0.043
    47   h1     1   LIG  HC21   47     0.043367      1.00800 ; qtot 0.000

[ bonds ]
;   ai     aj funct   r             k
     1      2   1    1.4687e-01    2.3579e+05 ;      C - C1    
     1      5   1    1.4907e-01    2.1994e+05 ;      C - C4    
     1     22   1    1.2190e-01    4.9421e+05 ;      C - O     
     2      3   1    1.3730e-01    3.2321e+05 ;     C1 - C2    
     2     26   1    1.0838e-01    3.0470e+05 ;     C1 - HC    
     3     12   1    1.4610e-01    2.4166e+05 ;     C2 - C11   
     3     23   1    1.3608e-01    2.9530e+05 ;     C2 - O1    
     4      5   1    1.3986e-01    2.9644e+05 ;     C3 - C4    
     4     11   1    1.3986e-01    2.9644e+05 ;     C3 - C10   
     4     23   1    1.3688e-01    2.8731e+05 ;     C3 - O1    
     5      6   1    1.3986e-01    2.9644e+05 ;     C4 - C5    
     6      7   1    1.3986e-01    2.9644e+05 ;     C5 - C6    
     6     27   1    1.0860e-01    3.0183e+05 ;     C5 - HC1   
     7      8   1    1.5147e-01    2.0410e+05 ;     C6 - C7    
     7      9   1    1.3986e-01    2.9644e+05 ;     C6 - C8    
     8     42   1    1.0962e-01    2.8891e+05 ;     C7 - HC16  
     8     43   1    1.0962e-01    2.8891e+05 ;     C7 - HC17  
     8     44   1    1.0962e-01    2.8891e+05 ;     C7 - HC18  
     9     10   1    1.5147e-01    2.0410e+05 ;     C8 - C9    
     9     11   1    1.3986e-01    2.9644e+05 ;     C8 - C10   
    10     36   1    1.0962e-01    2.8891e+05 ;     C9 - HC10  
    10     37   1    1.0962e-01    2.8891e+05 ;     C9 - HC11  
    10     38   1    1.0962e-01    2.8891e+05 ;     C9 - HC12  
    11     28   1    1.0860e-01    3.0183e+05 ;    C10 - HC2   
    12     13   1    1.3986e-01    2.9644e+05 ;    C11 - C12   
    12     19   1    1.3986e-01    2.9644e+05 ;    C11 - C18   
    13     14   1    1.3986e-01    2.9644e+05 ;    C12 - C13   
    13     24   1    1.3688e-01    2.8731e+05 ;    C12 - O2    
    14     15   1    1.5147e-01    2.0410e+05 ;    C13 - C14   
    14     16   1    1.3986e-01    2.9644e+05 ;    C13 - C15   
    15     33   1    1.0962e-01    2.8891e+05 ;    C14 - HC7   
    15     34   1    1.0962e-01    2.8891e+05 ;    C14 - HC8   
    15     35   1    1.0962e-01    2.8891e+05 ;    C14 - HC9   
    16     17   1    1.5147e-01    2.0410e+05 ;    C15 - C16   
    16     18   1    1.3986e-01    2.9644e+05 ;    C15 - C17   
    17     39   1    1.0962e-01    2.8891e+05 ;    C16 - HC13  
    17     40   1    1.0962e-01    2.8891e+05 ;    C16 - HC14  
    17     41   1    1.0962e-01    2.8891e+05 ;    C16 - HC15  
    18     19   1    1.3986e-01    2.9644e+05 ;    C17 - C18   
    18     25   1    1.3688e-01    2.8731e+05 ;    C17 - O3    
    19     29   1    1.0860e-01    3.0183e+05 ;    C18 - HC3   
    20     24   1    1.4273e-01    2.3620e+05 ;    C19 - O2    
    20     45   1    1.0969e-01    2.8804e+05 ;    C19 - HC19  
    20     46   1    1.0969e-01    2.8804e+05 ;    C19 - HC20  
    20     47   1    1.0969e-01    2.8804e+05 ;    C19 - HC21  
    21     25   1    1.4273e-01    2.3620e+05 ;    C20 - O3    
    21     30   1    1.0969e-01    2.8804e+05 ;    C20 - HC4   
    21     31   1    1.0969e-01    2.8804e+05 ;    C20 - HC5   
    21     32   1    1.0969e-01    2.8804e+05 ;    C20 - HC6   

[ pairs ]
;   ai     aj    funct
     1      7      1 ;      C - C6    
     1     11      1 ;      C - C10   
     1     12      1 ;      C - C11   
     1     23      1 ;      C - O1    
     1     27      1 ;      C - HC1   
     2      4      1 ;     C1 - C3    
     2      6      1 ;     C1 - C5    
     2     13      1 ;     C1 - C12   
     2     19      1 ;     C1 - C18   
     3     11      1 ;     C2 - C10   
     3     14      1 ;     C2 - C13   
     3     18      1 ;     C2 - C17   
     3     24      1 ;     C2 - O2    
     3     29      1 ;     C2 - HC3   
     4      7      1 ;     C3 - C6    
     4     10      1 ;     C3 - C9    
     4     12      1 ;     C3 - C11   
     4     27      1 ;     C3 - HC1   
     5      3      1 ;     C4 - C2    
     5      8      1 ;     C4 - C7    
     5      9      1 ;     C4 - C8    
     5     26      1 ;     C4 - HC    
     5     28      1 ;     C4 - HC2   
     6     10      1 ;     C5 - C9    
     6     11      1 ;     C5 - C10   
     6     23      1 ;     C5 - O1    
     6     42      1 ;     C5 - HC16  
     6     43      1 ;     C5 - HC17  
     6     44      1 ;     C5 - HC18  
     7     28      1 ;     C6 - HC2   
     7     36      1 ;     C6 - HC10  
     7     37      1 ;     C6 - HC11  
     7     38      1 ;     C6 - HC12  
     8     10      1 ;     C7 - C9    
     8     11      1 ;     C7 - C10   
     8     27      1 ;     C7 - HC1   
     9     23      1 ;     C8 - O1    
     9     27      1 ;     C8 - HC1   
     9     42      1 ;     C8 - HC16  
     9     43      1 ;     C8 - HC17  
     9     44      1 ;     C8 - HC18  
    10     28      1 ;     C9 - HC2   
    11     36      1 ;    C10 - HC10  
    11     37      1 ;    C10 - HC11  
    11     38      1 ;    C10 - HC12  
    12     15      1 ;    C11 - C14   
    12     16      1 ;    C11 - C15   
    12     20      1 ;    C11 - C19   
    12     25      1 ;    C11 - O3    
    12     26      1 ;    C11 - HC    
    13     17      1 ;    C12 - C16   
    13     18      1 ;    C12 - C17   
    13     23      1 ;    C12 - O1    
    13     29      1 ;    C12 - HC3   
    13     33      1 ;    C12 - HC7   
    13     34      1 ;    C12 - HC8   
    13     35      1 ;    C12 - HC9   
    13     45      1 ;    C12 - HC19  
    13     46      1 ;    C12 - HC20  
    13     47      1 ;    C12 - HC21  
    14     19      1 ;    C13 - C18   
    14     20      1 ;    C13 - C19   
    14     25      1 ;    C13 - O3    
    14     39      1 ;    C13 - HC13  
    14     40      1 ;    C13 - HC14  
    14     41      1 ;    C13 - HC15  
    15     17      1 ;    C14 - C16   
    15     18      1 ;    C14 - C17   
    15     24      1 ;    C14 - O2    
    16     21      1 ;    C15 - C20   
    16     24      1 ;    C15 - O2    
    16     29      1 ;    C15 - HC3   
    16     33      1 ;    C15 - HC7   
    16     34      1 ;    C15 - HC8   
    16     35      1 ;    C15 - HC9   
    17     19      1 ;    C16 - C18   
    17     25      1 ;    C16 - O3    
    18     30      1 ;    C17 - HC4   
    18     31      1 ;    C17 - HC5   
    18     32      1 ;    C17 - HC6   
    18     39      1 ;    C17 - HC13  
    18     40      1 ;    C17 - HC14  
    18     41      1 ;    C17 - HC15  
    19     21      1 ;    C18 - C20   
    19     23      1 ;    C18 - O1    
    19     24      1 ;    C18 - O2    
    22      3      1 ;      O - C2    
    22      4      1 ;      O - C3    
    22      6      1 ;      O - C5    
    22     26      1 ;      O - HC    
    23     26      1 ;     O1 - HC    
    23     28      1 ;     O1 - HC2   
    25     29      1 ;     O3 - HC3   

[ angles ]
;   ai     aj     ak    funct   theta         cth
     1      2      3      1    1.2132e+02    5.2049e+02 ;      C - C1     - C2    
     1      2     26      1    1.1681e+02    3.6543e+02 ;      C - C1     - HC    
     1      5      4      1    1.2033e+02    5.1413e+02 ;      C - C4     - C3    
     1      5      6      1    1.2033e+02    5.1413e+02 ;      C - C4     - C5    
     2      1      5      1    1.1533e+02    5.1371e+02 ;     C1 - C      - C4    
     2      1     22      1    1.2406e+02    6.5572e+02 ;     C1 - C      - O     
     2      3     12      1    1.2429e+02    5.1580e+02 ;     C1 - C2     - C11   
     2      3     23      1    1.1671e+02    6.7613e+02 ;     C1 - C2     - O1    
     3      2     26      1    1.2140e+02    3.7907e+02 ;     C2 - C1     - HC    
     3     12     13      1    1.2083e+02    5.1898e+02 ;     C2 - C11    - C12   
     3     12     19      1    1.2083e+02    5.1898e+02 ;     C2 - C11    - C18   
     3     23      4      1    1.1986e+02    7.5253e+02 ;     C2 - O1     - C3    
     4      5      6      1    1.2002e+02    5.3279e+02 ;     C3 - C4     - C5    
     4     11      9      1    1.2002e+02    5.3279e+02 ;     C3 - C10    - C8    
     4     11     28      1    1.1988e+02    3.7572e+02 ;     C3 - C10    - HC2   
     5      1     22      1    1.2260e+02    6.5237e+02 ;     C4 - C      - O     
     5      4     11      1    1.2002e+02    5.3279e+02 ;     C4 - C3     - C10   
     5      4     23      1    1.1911e+02    6.6107e+02 ;     C4 - C3     - O1    
     5      6      7      1    1.2002e+02    5.3279e+02 ;     C4 - C5     - C6    
     5      6     27      1    1.1988e+02    3.7572e+02 ;     C4 - C5     - HC1   
     6      7      8      1    1.2083e+02    5.0827e+02 ;     C5 - C6     - C7    
     6      7      9      1    1.2002e+02    5.3279e+02 ;     C5 - C6     - C8    
     7      6     27      1    1.1988e+02    3.7572e+02 ;     C6 - C5     - HC1   
     7      8     42      1    1.1063e+02    3.6493e+02 ;     C6 - C7     - HC16  
     7      8     43      1    1.1063e+02    3.6493e+02 ;     C6 - C7     - HC17  
     7      8     44      1    1.1063e+02    3.6493e+02 ;     C6 - C7     - HC18  
     7      9     10      1    1.2083e+02    5.0827e+02 ;     C6 - C8     - C9    
     7      9     11      1    1.2002e+02    5.3279e+02 ;     C6 - C8     - C10   
     8      7      9      1    1.2083e+02    5.0827e+02 ;     C7 - C6     - C8    
     9     10     36      1    1.1063e+02    3.6493e+02 ;     C8 - C9     - HC10  
     9     10     37      1    1.1063e+02    3.6493e+02 ;     C8 - C9     - HC11  
     9     10     38      1    1.1063e+02    3.6493e+02 ;     C8 - C9     - HC12  
     9     11     28      1    1.1988e+02    3.7572e+02 ;     C8 - C10    - HC2   
    10      9     11      1    1.2083e+02    5.0827e+02 ;     C9 - C8     - C10   
    11      4     23      1    1.1911e+02    6.6107e+02 ;    C10 - C3     - O1    
    12      3     23      1    1.1368e+02    6.6208e+02 ;    C11 - C2     - O1    
    12     13     14      1    1.2002e+02    5.3279e+02 ;    C11 - C12    - C13   
    12     13     24      1    1.1911e+02    6.6107e+02 ;    C11 - C12    - O2    
    12     19     18      1    1.2002e+02    5.3279e+02 ;    C11 - C18    - C17   
    12     19     29      1    1.1988e+02    3.7572e+02 ;    C11 - C18    - HC3   
    13     12     19      1    1.2002e+02    5.3279e+02 ;    C12 - C11    - C18   
    13     14     15      1    1.2083e+02    5.0827e+02 ;    C12 - C13    - C14   
    13     14     16      1    1.2002e+02    5.3279e+02 ;    C12 - C13    - C15   
    13     24     20      1    1.1839e+02    7.3856e+02 ;    C12 - O2     - C19   
    14     13     24      1    1.1911e+02    6.6107e+02 ;    C13 - C12    - O2    
    14     15     33      1    1.1063e+02    3.6493e+02 ;    C13 - C14    - HC7   
    14     15     34      1    1.1063e+02    3.6493e+02 ;    C13 - C14    - HC8   
    14     15     35      1    1.1063e+02    3.6493e+02 ;    C13 - C14    - HC9   
    14     16     17      1    1.2083e+02    5.0827e+02 ;    C13 - C15    - C16   
    14     16     18      1    1.2002e+02    5.3279e+02 ;    C13 - C15    - C17   
    15     14     16      1    1.2083e+02    5.0827e+02 ;    C14 - C13    - C15   
    16     17     39      1    1.1063e+02    3.6493e+02 ;    C15 - C16    - HC13  
    16     17     40      1    1.1063e+02    3.6493e+02 ;    C15 - C16    - HC14  
    16     17     41      1    1.1063e+02    3.6493e+02 ;    C15 - C16    - HC15  
    16     18     19      1    1.2002e+02    5.3279e+02 ;    C15 - C17    - C18   
    16     18     25      1    1.1911e+02    6.6107e+02 ;    C15 - C17    - O3    
    17     16     18      1    1.2083e+02    5.0827e+02 ;    C16 - C15    - C17   
    18     19     29      1    1.1988e+02    3.7572e+02 ;    C17 - C18    - HC3   
    18     25     21      1    1.1839e+02    7.3856e+02 ;    C17 - O3     - C20   
    19     18     25      1    1.1911e+02    6.6107e+02 ;    C18 - C17    - O3    
    24     20     45      1    1.1034e+02    4.7028e+02 ;     O2 - C19    - HC19  
    24     20     46      1    1.1034e+02    4.7028e+02 ;     O2 - C19    - HC20  
    24     20     47      1    1.1034e+02    4.7028e+02 ;     O2 - C19    - HC21  
    25     21     30      1    1.1034e+02    4.7028e+02 ;     O3 - C20    - HC4   
    25     21     31      1    1.1034e+02    4.7028e+02 ;     O3 - C20    - HC5   
    25     21     32      1    1.1034e+02    4.7028e+02 ;     O3 - C20    - HC6   
    30     21     31      1    1.0855e+02    2.9824e+02 ;    HC4 - C20    - HC5   
    30     21     32      1    1.0855e+02    2.9824e+02 ;    HC4 - C20    - HC6   
    31     21     32      1    1.0855e+02    2.9824e+02 ;    HC5 - C20    - HC6   
    33     15     34      1    1.0773e+02    2.9957e+02 ;    HC7 - C14    - HC8   
    33     15     35      1    1.0773e+02    2.9957e+02 ;    HC7 - C14    - HC9   
    34     15     35      1    1.0773e+02    2.9957e+02 ;    HC8 - C14    - HC9   
    36     10     37      1    1.0773e+02    2.9957e+02 ;   HC10 - C9     - HC11  
    36     10     38      1    1.0773e+02    2.9957e+02 ;   HC10 - C9     - HC12  
    37     10     38      1    1.0773e+02    2.9957e+02 ;   HC11 - C9     - HC12  
    39     17     40      1    1.0773e+02    2.9957e+02 ;   HC13 - C16    - HC14  
    39     17     41      1    1.0773e+02    2.9957e+02 ;   HC13 - C16    - HC15  
    40     17     41      1    1.0773e+02    2.9957e+02 ;   HC14 - C16    - HC15  
    42      8     43      1    1.0773e+02    2.9957e+02 ;   HC16 - C7     - HC17  
    42      8     44      1    1.0773e+02    2.9957e+02 ;   HC16 - C7     - HC18  
    43      8     44      1    1.0773e+02    2.9957e+02 ;   HC17 - C7     - HC18  
    45     20     46      1    1.0855e+02    2.9824e+02 ;   HC19 - C19    - HC20  
    45     20     47      1    1.0855e+02    2.9824e+02 ;   HC19 - C19    - HC21  
    46     20     47      1    1.0855e+02    2.9824e+02 ;   HC20 - C19    - HC21  

[ dihedrals ] ; propers
; for gromacs 4.5 or higher, using funct 9
;    i      j      k      l   func   phase     kd      pn
     1      2      3     12      9   180.00  16.73600   2 ;      C-    C1-    C2-   C11
     1      2      3     23      9   180.00  16.73600   2 ;      C-    C1-    C2-    O1
     1      5      4     11      9   180.00  15.16700   2 ;      C-    C4-    C3-   C10
     1      5      4     23      9   180.00  15.16700   2 ;      C-    C4-    C3-    O1
     1      5      6      7      9   180.00  15.16700   2 ;      C-    C4-    C5-    C6
     1      5      6     27      9   180.00  15.16700   2 ;      C-    C4-    C5-   HC1
     2      1      5      4      9   180.00   7.93914   2 ;     C1-     C-    C4-    C3
     2      1      5      6      9   180.00   7.93914   2 ;     C1-     C-    C4-    C5
     2      3     12     13      9   180.00  15.77368   2 ;     C1-    C2-   C11-   C12
     2      3     12     19      9   180.00  15.77368   2 ;     C1-    C2-   C11-   C18
     2      3     23      4      9   180.00   2.71960   1 ;     C1-    C2-    O1-    C3
     3     12     13     14      9   180.00  15.16700   2 ;     C2-   C11-   C12-   C13
     3     12     13     24      9   180.00  15.16700   2 ;     C2-   C11-   C12-    O2
     3     12     19     18      9   180.00  15.16700   2 ;     C2-   C11-   C18-   C17
     3     12     19     29      9   180.00  15.16700   2 ;     C2-   C11-   C18-   HC3
     3     23      4      5      9   180.00   3.76560   2 ;     C2-    O1-    C3-    C4
     3     23      4     11      9   180.00   3.76560   2 ;     C2-    O1-    C3-   C10
     4      5      6      7      9   180.00  15.16700   2 ;     C3-    C4-    C5-    C6
     4      5      6     27      9   180.00  15.16700   2 ;     C3-    C4-    C5-   HC1
     4     11      9      7      9   180.00  15.16700   2 ;     C3-   C10-    C8-    C6
     4     11      9     10      9   180.00  15.16700   2 ;     C3-   C10-    C8-    C9
     4     23      3     12      9   180.00   2.71960   1 ;     C3-    O1-    C2-   C11
     5      1      2      3      9     0.00   8.89100   2 ;     C4-     C-    C1-    C2
     5      1      2      3      9   180.00   1.04600   3 ;     C4-     C-    C1-    C2
     5      1      2      3      9   180.00  14.56032   1 ;     C4-     C-    C1-    C2
     5      1      2     26      9   180.00  12.02900   2 ;     C4-     C-    C1-    HC
     5      4     11      9      9   180.00  15.16700   2 ;     C4-    C3-   C10-    C8
     5      4     11     28      9   180.00  15.16700   2 ;     C4-    C3-   C10-   HC2
     5      6      7      8      9   180.00  15.16700   2 ;     C4-    C5-    C6-    C7
     5      6      7      9      9   180.00  15.16700   2 ;     C4-    C5-    C6-    C8
     6      5      4     11      9   180.00  15.16700   2 ;     C5-    C4-    C3-   C10
     6      5      4     23      9   180.00  15.16700   2 ;     C5-    C4-    C3-    O1
     6      7      8     42      9     0.00   0.00000   0 ;     C5-    C6-    C7-  HC16
     6      7      8     43      9     0.00   0.00000   0 ;     C5-    C6-    C7-  HC17
     6      7      8     44      9     0.00   0.00000   0 ;     C5-    C6-    C7-  HC18
     6      7      9     10      9   180.00  15.16700   2 ;     C5-    C6-    C8-    C9
     6      7      9     11      9   180.00  15.16700   2 ;     C5-    C6-    C8-   C10
     7      9     10     36      9     0.00   0.00000   0 ;     C6-    C8-    C9-  HC10
     7      9     10     37      9     0.00   0.00000   0 ;     C6-    C8-    C9-  HC11
     7      9     10     38      9     0.00   0.00000   0 ;     C6-    C8-    C9-  HC12
     7      9     11     28      9   180.00  15.16700   2 ;     C6-    C8-   C10-   HC2
     8      7      6     27      9   180.00  15.16700   2 ;     C7-    C6-    C5-   HC1
     8      7      9     10      9   180.00  15.16700   2 ;     C7-    C6-    C8-    C9
     8      7      9     11      9   180.00  15.16700   2 ;     C7-    C6-    C8-   C10
     9      7      6     27      9   180.00  15.16700   2 ;     C8-    C6-    C5-   HC1
     9      7      8     42      9     0.00   0.00000   0 ;     C8-    C6-    C7-  HC16
     9      7      8     43      9     0.00   0.00000   0 ;     C8-    C6-    C7-  HC17
     9      7      8     44      9     0.00   0.00000   0 ;     C8-    C6-    C7-  HC18
     9     11      4     23      9   180.00  15.16700   2 ;     C8-   C10-    C3-    O1
    10      9     11     28      9   180.00  15.16700   2 ;     C9-    C8-   C10-   HC2
    11      9     10     36      9     0.00   0.00000   0 ;    C10-    C8-    C9-  HC10
    11      9     10     37      9     0.00   0.00000   0 ;    C10-    C8-    C9-  HC11
    11      9     10     38      9     0.00   0.00000   0 ;    C10-    C8-    C9-  HC12
    12      3      2     26      9   180.00  16.73600   2 ;    C11-    C2-    C1-    HC
    12     13     14     15      9   180.00  15.16700   2 ;    C11-   C12-   C13-   C14
    12     13     14     16      9   180.00  15.16700   2 ;    C11-   C12-   C13-   C15
    12     13     24     20      9   180.00   6.94544   2 ;    C11-   C12-    O2-   C19
    12     19     18     16      9   180.00  15.16700   2 ;    C11-   C18-   C17-   C15
    12     19     18     25      9   180.00  15.16700   2 ;    C11-   C18-   C17-    O3
    13     12      3     23      9   180.00   2.92880   2 ;    C12-   C11-    C2-    O1
    13     12     19     18      9   180.00  15.16700   2 ;    C12-   C11-   C18-   C17
    13     12     19     29      9   180.00  15.16700   2 ;    C12-   C11-   C18-   HC3
    13     14     15     33      9     0.00   0.00000   0 ;    C12-   C13-   C14-   HC7
    13     14     15     34      9     0.00   0.00000   0 ;    C12-   C13-   C14-   HC8
    13     14     15     35      9     0.00   0.00000   0 ;    C12-   C13-   C14-   HC9
    13     14     16     17      9   180.00  15.16700   2 ;    C12-   C13-   C15-   C16
    13     14     16     18      9   180.00  15.16700   2 ;    C12-   C13-   C15-   C17
    13     24     20     45      9     0.00   1.60387   3 ;    C12-    O2-   C19-  HC19
    13     24     20     46      9     0.00   1.60387   3 ;    C12-    O2-   C19-  HC20
    13     24     20     47      9     0.00   1.60387   3 ;    C12-    O2-   C19-  HC21
    14     13     12     19      9   180.00  15.16700   2 ;    C13-   C12-   C11-   C18
    14     13     24     20      9   180.00   6.94544   2 ;    C13-   C12-    O2-   C19
    14     16     17     39      9     0.00   0.00000   0 ;    C13-   C15-   C16-  HC13
    14     16     17     40      9     0.00   0.00000   0 ;    C13-   C15-   C16-  HC14
    14     16     17     41      9     0.00   0.00000   0 ;    C13-   C15-   C16-  HC15
    14     16     18     19      9   180.00  15.16700   2 ;    C13-   C15-   C17-   C18
    14     16     18     25      9   180.00  15.16700   2 ;    C13-   C15-   C17-    O3
    15     14     13     24      9   180.00  15.16700   2 ;    C14-   C13-   C12-    O2
    15     14     16     17      9   180.00  15.16700   2 ;    C14-   C13-   C15-   C16
    15     14     16     18      9   180.00  15.16700   2 ;    C14-   C13-   C15-   C17
    16     14     13     24      9   180.00  15.16700   2 ;    C15-   C13-   C12-    O2
    16     14     15     33      9     0.00   0.00000   0 ;    C15-   C13-   C14-   HC7
    16     14     15     34      9     0.00   0.00000   0 ;    C15-   C13-   C14-   HC8
    16     14     15     35      9     0.00   0.00000   0 ;    C15-   C13-   C14-   HC9
    16     18     19     29      9   180.00  15.16700   2 ;    C15-   C17-   C18-   HC3
    16     18     25     21      9   180.00   6.94544   2 ;    C15-   C17-    O3-   C20
    17     16     18     19      9   180.00  15.16700   2 ;    C16-   C15-   C17-   C18
    17     16     18     25      9   180.00  15.16700   2 ;    C16-   C15-   C17-    O3
    18     16     17     39      9     0.00   0.00000   0 ;    C17-   C15-   C16-  HC13
    18     16     17     40      9     0.00   0.00000   0 ;    C17-   C15-   C16-  HC14
    18     16     17     41      9     0.00   0.00000   0 ;    C17-   C15-   C16-  HC15
    18     25     21     30      9     0.00   1.60387   3 ;    C17-    O3-   C20-   HC4
    18     25     21     31      9     0.00   1.60387   3 ;    C17-    O3-   C20-   HC5
    18     25     21     32      9     0.00   1.60387   3 ;    C17-    O3-   C20-   HC6
    19     12      3     23      9   180.00   2.92880   2 ;    C18-   C11-    C2-    O1
    19     12     13     24      9   180.00  15.16700   2 ;    C18-   C11-   C12-    O2
    19     18     25     21      9   180.00   6.94544   2 ;    C18-   C17-    O3-   C20
    22      1      2      3      9   180.00  12.02900   2 ;      O-     C-    C1-    C2
    22      1      2     26      9   180.00  12.02900   2 ;      O-     C-    C1-    HC
    22      1      5      4      9   180.00   2.42672   2 ;      O-     C-    C4-    C3
    22      1      5      6      9   180.00   2.42672   2 ;      O-     C-    C4-    C5
    23      3      2     26      9   180.00  16.73600   2 ;     O1-    C2-    C1-    HC
    23      4     11     28      9   180.00  15.16700   2 ;     O1-    C3-   C10-   HC2
    25     18     19     29      9   180.00  15.16700   2 ;     O3-   C17-   C18-   HC3

[ dihedrals ] ; impropers
; treated as propers in GROMACS to use correct AMBER analytical function
;    i      j      k      l   func   phase     kd      pn
     1      3      2     26      4   180.00   4.60240   2 ;      C-    C2-    C1-    HC
     1      4      5      6      4   180.00   4.60240   2 ;      C-    C3-    C4-    C5
     4      9     11     28      4   180.00   4.60240   2 ;     C3-    C8-   C10-   HC2
     5      7      6     27      4   180.00   4.60240   2 ;     C4-    C6-    C5-   HC1
     5     11      4     23      4   180.00   4.60240   2 ;     C4-   C10-    C3-    O1
     6      9      7      8      4   180.00   4.60240   2 ;     C5-    C8-    C6-    C7
    10      7      9     11      4   180.00   4.60240   2 ;     C9-    C6-    C8-   C10
    12      2      3     23      4   180.00   4.60240   2 ;    C11-    C1-    C2-    O1
    12     14     13     24      4   180.00   4.60240   2 ;    C11-   C13-   C12-    O2
    12     18     19     29      4   180.00   4.60240   2 ;    C11-   C17-   C18-   HC3
    13     19     12      3      4   180.00   4.60240   2 ;    C12-   C18-   C11-    C2
    15     13     14     16      4   180.00   4.60240   2 ;    C14-   C12-   C13-   C15
    16     19     18     25      4   180.00   4.60240   2 ;    C15-   C18-   C17-    O3
    17     14     16     18      4   180.00   4.60240   2 ;    C16-   C13-   C15-   C17
    22      1      2      5      4   180.00  43.93200   2 ;      O-     C-    C1-    C4
