LIG_GMX.gro created by acpype (v: 2023.10.27) on Thu Jul 30 20:05:19 2026
 37
    1  LIG    C    1   0.305   5.920   6.917
    1  LIG   C1    2   0.294   6.053   6.878
    1  LIG   C2    3   0.189   6.131   6.928
    1  LIG   C3    4   0.111   5.952   7.057
    1  LIG   C4    5   0.214   5.868   7.010
    1  LIG   C5    6   0.223   5.736   7.056
    1  LIG   C6    7   0.133   5.688   7.153
    1  LIG   C7    8   0.148   5.546   7.203
    1  LIG   C8    9   0.032   5.773   7.202
    1  LIG   C9   10  -0.064   5.726   7.309
    1  LIG  C10   11   0.021   5.904   7.153
    1  LIG  C11   12   0.176   6.274   6.890
    1  LIG  C12   13   0.284   6.343   6.832
    1  LIG  C13   14   0.272   6.478   6.797
    1  LIG  C14   15   0.150   6.545   6.814
    1  LIG  C15   16   0.041   6.476   6.870
    1  LIG  C16   17   0.054   6.343   6.909
    1  LIG  C17   18   0.120   6.719   6.648
    1  LIG    O   19   0.396   5.851   6.873
    1  LIG   O1   20   0.101   6.078   7.014
    1  LIG   O2   21   0.141   6.676   6.777
    1  LIG   HC   22   0.365   6.095   6.809
    1  LIG  HC1   23   0.300   5.671   7.018
    1  LIG  HC2   24  -0.058   5.969   7.189
    1  LIG  HC3   25   0.378   6.291   6.816
    1  LIG  HC4   26   0.356   6.530   6.755
    1  LIG  HC5   27  -0.053   6.527   6.884
    1  LIG  HC6   28  -0.030   6.292   6.953
    1  LIG  HC7   29   0.231   5.498   7.152
    1  LIG  HC8   30   0.056   5.491   7.183
    1  LIG  HC9   31   0.167   5.548   7.310
    1  LIG HC10   32   0.117   6.828   6.646
    1  LIG HC11   33   0.025   6.680   6.611
    1  LIG HC12   34   0.201   6.684   6.584
    1  LIG HC13   35  -0.134   5.806   7.334
    1  LIG HC14   36  -0.120   5.640   7.272
    1  LIG HC15   37  -0.008   5.697   7.398
   10.58200    26.74600    16.28000
