; LIG_GMX.itp created by acpype (v: 2023.10.27) on Thu Jul 30 20:05:19 2026

[ atomtypes ]
;name   bond_type     mass     charge   ptype   sigma         epsilon       Amb
 c        c           0.00000  0.00000   A     3.31521e-01   4.13379e-01 ; 1.86  0.0988
 cc       cc          0.00000  0.00000   A     3.31521e-01   4.13379e-01 ; 1.86  0.0988
 cd       cd          0.00000  0.00000   A     3.31521e-01   4.13379e-01 ; 1.86  0.0988
 ca       ca          0.00000  0.00000   A     3.31521e-01   4.13379e-01 ; 1.86  0.0988
 c3       c3          0.00000  0.00000   A     3.39771e-01   4.51035e-01 ; 1.91  0.1078
 o        o           0.00000  0.00000   A     3.04812e-01   6.12119e-01 ; 1.71  0.1463
 os       os          0.00000  0.00000   A     3.15610e-01   3.03758e-01 ; 1.77  0.0726
 ha       ha          0.00000  0.00000   A     2.62548e-01   6.73624e-02 ; 1.47  0.0161
 hc       hc          0.00000  0.00000   A     2.60018e-01   8.70272e-02 ; 1.46  0.0208
 h1       h1          0.00000  0.00000   A     2.42200e-01   8.70272e-02 ; 1.36  0.0208

[ moleculetype ]
;name            nrexcl
 LIG              3

[ atoms ]
;   nr  type  resi  res  atom  cgnr     charge      mass       ; qtot   bond_type
     1    c     1   LIG     C    1     0.590900     12.01000 ; qtot 0.591
     2   cc     1   LIG    C1    2    -0.327200     12.01000 ; qtot 0.264
     3   cd     1   LIG    C2    3     0.205900     12.01000 ; qtot 0.470
     4   ca     1   LIG    C3    4     0.142100     12.01000 ; qtot 0.612
     5   ca     1   LIG    C4    5    -0.215600     12.01000 ; qtot 0.396
     6   ca     1   LIG    C5    6    -0.046000     12.01000 ; qtot 0.350
     7   ca     1   LIG    C6    7    -0.112300     12.01000 ; qtot 0.238
     8   c3     1   LIG    C7    8    -0.049800     12.01000 ; qtot 0.188
     9   ca     1   LIG    C8    9    -0.024300     12.01000 ; qtot 0.164
    10   c3     1   LIG    C9   10    -0.060800     12.01000 ; qtot 0.103
    11   ca     1   LIG   C10   11    -0.160000     12.01000 ; qtot -0.057
    12   ca     1   LIG   C11   12    -0.115800     12.01000 ; qtot -0.173
    13   ca     1   LIG   C12   13    -0.057500     12.01000 ; qtot -0.230
    14   ca     1   LIG   C13   14    -0.189000     12.01000 ; qtot -0.419
    15   ca     1   LIG   C14   15     0.147100     12.01000 ; qtot -0.272
    16   ca     1   LIG   C15   16    -0.189000     12.01000 ; qtot -0.461
    17   ca     1   LIG   C16   17    -0.057500     12.01000 ; qtot -0.519
    18   c3     1   LIG   C17   18     0.111700     12.01000 ; qtot -0.407
    19    o     1   LIG     O   19    -0.550100     16.00000 ; qtot -0.957
    20   os     1   LIG    O1   20    -0.226200     16.00000 ; qtot -1.183
    21   os     1   LIG    O2   21    -0.322900     16.00000 ; qtot -1.506
    22   ha     1   LIG    HC   22     0.166000      1.00800 ; qtot -1.340
    23   ha     1   LIG   HC1   23     0.160000      1.00800 ; qtot -1.180
    24   ha     1   LIG   HC2   24     0.153000      1.00800 ; qtot -1.027
    25   ha     1   LIG   HC3   25     0.147000      1.00800 ; qtot -0.880
    26   ha     1   LIG   HC4   26     0.149000      1.00800 ; qtot -0.731
    27   ha     1   LIG   HC5   27     0.149000      1.00800 ; qtot -0.582
    28   ha     1   LIG   HC6   28     0.147000      1.00800 ; qtot -0.435
    29   hc     1   LIG   HC7   29     0.046367      1.00800 ; qtot -0.389
    30   hc     1   LIG   HC8   30     0.046367      1.00800 ; qtot -0.343
    31   hc     1   LIG   HC9   31     0.046367      1.00800 ; qtot -0.296
    32   h1     1   LIG  HC10   32     0.048033      1.00800 ; qtot -0.248
    33   h1     1   LIG  HC11   33     0.048033      1.00800 ; qtot -0.200
    34   h1     1   LIG  HC12   34     0.048033      1.00800 ; qtot -0.152
    35   hc     1   LIG  HC13   35     0.050700      1.00800 ; qtot -0.101
    36   hc     1   LIG  HC14   36     0.050700      1.00800 ; qtot -0.051
    37   hc     1   LIG  HC15   37     0.050700      1.00800 ; qtot 0.000

[ bonds ]
;   ai     aj funct   r             k
     1      2   1    1.4687e-01    2.3579e+05 ;      C - C1    
     1      5   1    1.4907e-01    2.1994e+05 ;      C - C4    
     1     19   1    1.2190e-01    4.9421e+05 ;      C - O     
     2      3   1    1.3730e-01    3.2321e+05 ;     C1 - C2    
     2     22   1    1.0838e-01    3.0470e+05 ;     C1 - HC    
     3     12   1    1.4610e-01    2.4166e+05 ;     C2 - C11   
     3     20   1    1.3608e-01    2.9530e+05 ;     C2 - O1    
     4      5   1    1.3986e-01    2.9644e+05 ;     C3 - C4    
     4     11   1    1.3986e-01    2.9644e+05 ;     C3 - C10   
     4     20   1    1.3688e-01    2.8731e+05 ;     C3 - O1    
     5      6   1    1.3986e-01    2.9644e+05 ;     C4 - C5    
     6      7   1    1.3986e-01    2.9644e+05 ;     C5 - C6    
     6     23   1    1.0860e-01    3.0183e+05 ;     C5 - HC1   
     7      8   1    1.5147e-01    2.0410e+05 ;     C6 - C7    
     7      9   1    1.3986e-01    2.9644e+05 ;     C6 - C8    
     8     29   1    1.0962e-01    2.8891e+05 ;     C7 - HC7   
     8     30   1    1.0962e-01    2.8891e+05 ;     C7 - HC8   
     8     31   1    1.0962e-01    2.8891e+05 ;     C7 - HC9   
     9     10   1    1.5147e-01    2.0410e+05 ;     C8 - C9    
     9     11   1    1.3986e-01    2.9644e+05 ;     C8 - C10   
    10     35   1    1.0962e-01    2.8891e+05 ;     C9 - HC13  
    10     36   1    1.0962e-01    2.8891e+05 ;     C9 - HC14  
    10     37   1    1.0962e-01    2.8891e+05 ;     C9 - HC15  
    11     24   1    1.0860e-01    3.0183e+05 ;    C10 - HC2   
    12     13   1    1.3986e-01    2.9644e+05 ;    C11 - C12   
    12     17   1    1.3986e-01    2.9644e+05 ;    C11 - C16   
    13     14   1    1.3986e-01    2.9644e+05 ;    C12 - C13   
    13     25   1    1.0860e-01    3.0183e+05 ;    C12 - HC3   
    14     15   1    1.3986e-01    2.9644e+05 ;    C13 - C14   
    14     26   1    1.0860e-01    3.0183e+05 ;    C13 - HC4   
    15     16   1    1.3986e-01    2.9644e+05 ;    C14 - C15   
    15     21   1    1.3688e-01    2.8731e+05 ;    C14 - O2    
    16     17   1    1.3986e-01    2.9644e+05 ;    C15 - C16   
    16     27   1    1.0860e-01    3.0183e+05 ;    C15 - HC5   
    17     28   1    1.0860e-01    3.0183e+05 ;    C16 - HC6   
    18     21   1    1.4273e-01    2.3620e+05 ;    C17 - O2    
    18     32   1    1.0969e-01    2.8804e+05 ;    C17 - HC10  
    18     33   1    1.0969e-01    2.8804e+05 ;    C17 - HC11  
    18     34   1    1.0969e-01    2.8804e+05 ;    C17 - HC12  

[ pairs ]
;   ai     aj    funct
     1      7      1 ;      C - C6    
     1     11      1 ;      C - C10   
     1     12      1 ;      C - C11   
     1     20      1 ;      C - O1    
     1     23      1 ;      C - HC1   
     2      4      1 ;     C1 - C3    
     2      6      1 ;     C1 - C5    
     2     13      1 ;     C1 - C12   
     2     17      1 ;     C1 - C16   
     3     11      1 ;     C2 - C10   
     3     14      1 ;     C2 - C13   
     3     16      1 ;     C2 - C15   
     3     25      1 ;     C2 - HC3   
     3     28      1 ;     C2 - HC6   
     4      7      1 ;     C3 - C6    
     4     10      1 ;     C3 - C9    
     4     12      1 ;     C3 - C11   
     4     23      1 ;     C3 - HC1   
     5      3      1 ;     C4 - C2    
     5      8      1 ;     C4 - C7    
     5      9      1 ;     C4 - C8    
     5     22      1 ;     C4 - HC    
     5     24      1 ;     C4 - HC2   
     6     10      1 ;     C5 - C9    
     6     11      1 ;     C5 - C10   
     6     20      1 ;     C5 - O1    
     6     29      1 ;     C5 - HC7   
     6     30      1 ;     C5 - HC8   
     6     31      1 ;     C5 - HC9   
     7     24      1 ;     C6 - HC2   
     7     35      1 ;     C6 - HC13  
     7     36      1 ;     C6 - HC14  
     7     37      1 ;     C6 - HC15  
     8     10      1 ;     C7 - C9    
     8     11      1 ;     C7 - C10   
     8     23      1 ;     C7 - HC1   
     9     20      1 ;     C8 - O1    
     9     23      1 ;     C8 - HC1   
     9     29      1 ;     C8 - HC7   
     9     30      1 ;     C8 - HC8   
     9     31      1 ;     C8 - HC9   
    10     24      1 ;     C9 - HC2   
    11     35      1 ;    C10 - HC13  
    11     36      1 ;    C10 - HC14  
    11     37      1 ;    C10 - HC15  
    12     15      1 ;    C11 - C14   
    12     22      1 ;    C11 - HC    
    12     26      1 ;    C11 - HC4   
    12     27      1 ;    C11 - HC5   
    13     16      1 ;    C12 - C15   
    13     20      1 ;    C12 - O1    
    13     21      1 ;    C12 - O2    
    13     28      1 ;    C12 - HC6   
    14     17      1 ;    C13 - C16   
    14     18      1 ;    C13 - C17   
    14     27      1 ;    C13 - HC5   
    15     25      1 ;    C14 - HC3   
    15     28      1 ;    C14 - HC6   
    15     32      1 ;    C14 - HC10  
    15     33      1 ;    C14 - HC11  
    15     34      1 ;    C14 - HC12  
    16     18      1 ;    C15 - C17   
    16     26      1 ;    C15 - HC4   
    17     20      1 ;    C16 - O1    
    17     21      1 ;    C16 - O2    
    17     25      1 ;    C16 - HC3   
    19      3      1 ;      O - C2    
    19      4      1 ;      O - C3    
    19      6      1 ;      O - C5    
    19     22      1 ;      O - HC    
    20     22      1 ;     O1 - HC    
    20     24      1 ;     O1 - HC2   
    21     26      1 ;     O2 - HC4   
    21     27      1 ;     O2 - HC5   
    25     26      1 ;    HC3 - HC4   
    27     28      1 ;    HC5 - HC6   

[ angles ]
;   ai     aj     ak    funct   theta         cth
     1      2      3      1    1.2132e+02    5.2049e+02 ;      C - C1     - C2    
     1      2     22      1    1.1681e+02    3.6543e+02 ;      C - C1     - HC    
     1      5      4      1    1.2033e+02    5.1413e+02 ;      C - C4     - C3    
     1      5      6      1    1.2033e+02    5.1413e+02 ;      C - C4     - C5    
     2      1      5      1    1.1533e+02    5.1371e+02 ;     C1 - C      - C4    
     2      1     19      1    1.2406e+02    6.5572e+02 ;     C1 - C      - O     
     2      3     12      1    1.2429e+02    5.1580e+02 ;     C1 - C2     - C11   
     2      3     20      1    1.1671e+02    6.7613e+02 ;     C1 - C2     - O1    
     3      2     22      1    1.2140e+02    3.7907e+02 ;     C2 - C1     - HC    
     3     12     13      1    1.2083e+02    5.1898e+02 ;     C2 - C11    - C12   
     3     12     17      1    1.2083e+02    5.1898e+02 ;     C2 - C11    - C16   
     3     20      4      1    1.1986e+02    7.5253e+02 ;     C2 - O1     - C3    
     4      5      6      1    1.2002e+02    5.3279e+02 ;     C3 - C4     - C5    
     4     11      9      1    1.2002e+02    5.3279e+02 ;     C3 - C10    - C8    
     4     11     24      1    1.1988e+02    3.7572e+02 ;     C3 - C10    - HC2   
     5      1     19      1    1.2260e+02    6.5237e+02 ;     C4 - C      - O     
     5      4     11      1    1.2002e+02    5.3279e+02 ;     C4 - C3     - C10   
     5      4     20      1    1.1911e+02    6.6107e+02 ;     C4 - C3     - O1    
     5      6      7      1    1.2002e+02    5.3279e+02 ;     C4 - C5     - C6    
     5      6     23      1    1.1988e+02    3.7572e+02 ;     C4 - C5     - HC1   
     6      7      8      1    1.2083e+02    5.0827e+02 ;     C5 - C6     - C7    
     6      7      9      1    1.2002e+02    5.3279e+02 ;     C5 - C6     - C8    
     7      6     23      1    1.1988e+02    3.7572e+02 ;     C6 - C5     - HC1   
     7      8     29      1    1.1063e+02    3.6493e+02 ;     C6 - C7     - HC7   
     7      8     30      1    1.1063e+02    3.6493e+02 ;     C6 - C7     - HC8   
     7      8     31      1    1.1063e+02    3.6493e+02 ;     C6 - C7     - HC9   
     7      9     10      1    1.2083e+02    5.0827e+02 ;     C6 - C8     - C9    
     7      9     11      1    1.2002e+02    5.3279e+02 ;     C6 - C8     - C10   
     8      7      9      1    1.2083e+02    5.0827e+02 ;     C7 - C6     - C8    
     9     10     35      1    1.1063e+02    3.6493e+02 ;     C8 - C9     - HC13  
     9     10     36      1    1.1063e+02    3.6493e+02 ;     C8 - C9     - HC14  
     9     10     37      1    1.1063e+02    3.6493e+02 ;     C8 - C9     - HC15  
     9     11     24      1    1.1988e+02    3.7572e+02 ;     C8 - C10    - HC2   
    10      9     11      1    1.2083e+02    5.0827e+02 ;     C9 - C8     - C10   
    11      4     20      1    1.1911e+02    6.6107e+02 ;    C10 - C3     - O1    
    12      3     20      1    1.1368e+02    6.6208e+02 ;    C11 - C2     - O1    
    12     13     14      1    1.2002e+02    5.3279e+02 ;    C11 - C12    - C13   
    12     13     25      1    1.1988e+02    3.7572e+02 ;    C11 - C12    - HC3   
    12     17     16      1    1.2002e+02    5.3279e+02 ;    C11 - C16    - C15   
    12     17     28      1    1.1988e+02    3.7572e+02 ;    C11 - C16    - HC6   
    13     12     17      1    1.2002e+02    5.3279e+02 ;    C12 - C11    - C16   
    13     14     15      1    1.2002e+02    5.3279e+02 ;    C12 - C13    - C14   
    13     14     26      1    1.1988e+02    3.7572e+02 ;    C12 - C13    - HC4   
    14     13     25      1    1.1988e+02    3.7572e+02 ;    C13 - C12    - HC3   
    14     15     16      1    1.2002e+02    5.3279e+02 ;    C13 - C14    - C15   
    14     15     21      1    1.1911e+02    6.6107e+02 ;    C13 - C14    - O2    
    15     14     26      1    1.1988e+02    3.7572e+02 ;    C14 - C13    - HC4   
    15     16     17      1    1.2002e+02    5.3279e+02 ;    C14 - C15    - C16   
    15     16     27      1    1.1988e+02    3.7572e+02 ;    C14 - C15    - HC5   
    15     21     18      1    1.1839e+02    7.3856e+02 ;    C14 - O2     - C17   
    16     15     21      1    1.1911e+02    6.6107e+02 ;    C15 - C14    - O2    
    16     17     28      1    1.1988e+02    3.7572e+02 ;    C15 - C16    - HC6   
    17     16     27      1    1.1988e+02    3.7572e+02 ;    C16 - C15    - HC5   
    21     18     32      1    1.1034e+02    4.7028e+02 ;     O2 - C17    - HC10  
    21     18     33      1    1.1034e+02    4.7028e+02 ;     O2 - C17    - HC11  
    21     18     34      1    1.1034e+02    4.7028e+02 ;     O2 - C17    - HC12  
    29      8     30      1    1.0773e+02    2.9957e+02 ;    HC7 - C7     - HC8   
    29      8     31      1    1.0773e+02    2.9957e+02 ;    HC7 - C7     - HC9   
    30      8     31      1    1.0773e+02    2.9957e+02 ;    HC8 - C7     - HC9   
    32     18     33      1    1.0855e+02    2.9824e+02 ;   HC10 - C17    - HC11  
    32     18     34      1    1.0855e+02    2.9824e+02 ;   HC10 - C17    - HC12  
    33     18     34      1    1.0855e+02    2.9824e+02 ;   HC11 - C17    - HC12  
    35     10     36      1    1.0773e+02    2.9957e+02 ;   HC13 - C9     - HC14  
    35     10     37      1    1.0773e+02    2.9957e+02 ;   HC13 - C9     - HC15  
    36     10     37      1    1.0773e+02    2.9957e+02 ;   HC14 - C9     - HC15  

[ dihedrals ] ; propers
; for gromacs 4.5 or higher, using funct 9
;    i      j      k      l   func   phase     kd      pn
     1      2      3     12      9   180.00  16.73600   2 ;      C-    C1-    C2-   C11
     1      2      3     20      9   180.00  16.73600   2 ;      C-    C1-    C2-    O1
     1      5      4     11      9   180.00  15.16700   2 ;      C-    C4-    C3-   C10
     1      5      4     20      9   180.00  15.16700   2 ;      C-    C4-    C3-    O1
     1      5      6      7      9   180.00  15.16700   2 ;      C-    C4-    C5-    C6
     1      5      6     23      9   180.00  15.16700   2 ;      C-    C4-    C5-   HC1
     2      1      5      4      9   180.00   7.93914   2 ;     C1-     C-    C4-    C3
     2      1      5      6      9   180.00   7.93914   2 ;     C1-     C-    C4-    C5
     2      3     12     13      9   180.00  15.77368   2 ;     C1-    C2-   C11-   C12
     2      3     12     17      9   180.00  15.77368   2 ;     C1-    C2-   C11-   C16
     2      3     20      4      9   180.00   2.71960   1 ;     C1-    C2-    O1-    C3
     3     12     13     14      9   180.00  15.16700   2 ;     C2-   C11-   C12-   C13
     3     12     13     25      9   180.00  15.16700   2 ;     C2-   C11-   C12-   HC3
     3     12     17     16      9   180.00  15.16700   2 ;     C2-   C11-   C16-   C15
     3     12     17     28      9   180.00  15.16700   2 ;     C2-   C11-   C16-   HC6
     3     20      4      5      9   180.00   3.76560   2 ;     C2-    O1-    C3-    C4
     3     20      4     11      9   180.00   3.76560   2 ;     C2-    O1-    C3-   C10
     4      5      6      7      9   180.00  15.16700   2 ;     C3-    C4-    C5-    C6
     4      5      6     23      9   180.00  15.16700   2 ;     C3-    C4-    C5-   HC1
     4     11      9      7      9   180.00  15.16700   2 ;     C3-   C10-    C8-    C6
     4     11      9     10      9   180.00  15.16700   2 ;     C3-   C10-    C8-    C9
     4     20      3     12      9   180.00   2.71960   1 ;     C3-    O1-    C2-   C11
     5      1      2      3      9     0.00   8.89100   2 ;     C4-     C-    C1-    C2
     5      1      2      3      9   180.00   1.04600   3 ;     C4-     C-    C1-    C2
     5      1      2      3      9   180.00  14.56032   1 ;     C4-     C-    C1-    C2
     5      1      2     22      9   180.00  12.02900   2 ;     C4-     C-    C1-    HC
     5      4     11      9      9   180.00  15.16700   2 ;     C4-    C3-   C10-    C8
     5      4     11     24      9   180.00  15.16700   2 ;     C4-    C3-   C10-   HC2
     5      6      7      8      9   180.00  15.16700   2 ;     C4-    C5-    C6-    C7
     5      6      7      9      9   180.00  15.16700   2 ;     C4-    C5-    C6-    C8
     6      5      4     11      9   180.00  15.16700   2 ;     C5-    C4-    C3-   C10
     6      5      4     20      9   180.00  15.16700   2 ;     C5-    C4-    C3-    O1
     6      7      8     29      9     0.00   0.00000   0 ;     C5-    C6-    C7-   HC7
     6      7      8     30      9     0.00   0.00000   0 ;     C5-    C6-    C7-   HC8
     6      7      8     31      9     0.00   0.00000   0 ;     C5-    C6-    C7-   HC9
     6      7      9     10      9   180.00  15.16700   2 ;     C5-    C6-    C8-    C9
     6      7      9     11      9   180.00  15.16700   2 ;     C5-    C6-    C8-   C10
     7      9     10     35      9     0.00   0.00000   0 ;     C6-    C8-    C9-  HC13
     7      9     10     36      9     0.00   0.00000   0 ;     C6-    C8-    C9-  HC14
     7      9     10     37      9     0.00   0.00000   0 ;     C6-    C8-    C9-  HC15
     7      9     11     24      9   180.00  15.16700   2 ;     C6-    C8-   C10-   HC2
     8      7      6     23      9   180.00  15.16700   2 ;     C7-    C6-    C5-   HC1
     8      7      9     10      9   180.00  15.16700   2 ;     C7-    C6-    C8-    C9
     8      7      9     11      9   180.00  15.16700   2 ;     C7-    C6-    C8-   C10
     9      7      6     23      9   180.00  15.16700   2 ;     C8-    C6-    C5-   HC1
     9      7      8     29      9     0.00   0.00000   0 ;     C8-    C6-    C7-   HC7
     9      7      8     30      9     0.00   0.00000   0 ;     C8-    C6-    C7-   HC8
     9      7      8     31      9     0.00   0.00000   0 ;     C8-    C6-    C7-   HC9
     9     11      4     20      9   180.00  15.16700   2 ;     C8-   C10-    C3-    O1
    10      9     11     24      9   180.00  15.16700   2 ;     C9-    C8-   C10-   HC2
    11      9     10     35      9     0.00   0.00000   0 ;    C10-    C8-    C9-  HC13
    11      9     10     36      9     0.00   0.00000   0 ;    C10-    C8-    C9-  HC14
    11      9     10     37      9     0.00   0.00000   0 ;    C10-    C8-    C9-  HC15
    12      3      2     22      9   180.00  16.73600   2 ;    C11-    C2-    C1-    HC
    12     13     14     15      9   180.00  15.16700   2 ;    C11-   C12-   C13-   C14
    12     13     14     26      9   180.00  15.16700   2 ;    C11-   C12-   C13-   HC4
    12     17     16     15      9   180.00  15.16700   2 ;    C11-   C16-   C15-   C14
    12     17     16     27      9   180.00  15.16700   2 ;    C11-   C16-   C15-   HC5
    13     12      3     20      9   180.00   2.92880   2 ;    C12-   C11-    C2-    O1
    13     12     17     16      9   180.00  15.16700   2 ;    C12-   C11-   C16-   C15
    13     12     17     28      9   180.00  15.16700   2 ;    C12-   C11-   C16-   HC6
    13     14     15     16      9   180.00  15.16700   2 ;    C12-   C13-   C14-   C15
    13     14     15     21      9   180.00  15.16700   2 ;    C12-   C13-   C14-    O2
    14     13     12     17      9   180.00  15.16700   2 ;    C13-   C12-   C11-   C16
    14     15     16     17      9   180.00  15.16700   2 ;    C13-   C14-   C15-   C16
    14     15     16     27      9   180.00  15.16700   2 ;    C13-   C14-   C15-   HC5
    14     15     21     18      9   180.00   6.94544   2 ;    C13-   C14-    O2-   C17
    15     14     13     25      9   180.00  15.16700   2 ;    C14-   C13-   C12-   HC3
    15     16     17     28      9   180.00  15.16700   2 ;    C14-   C15-   C16-   HC6
    15     21     18     32      9     0.00   1.60387   3 ;    C14-    O2-   C17-  HC10
    15     21     18     33      9     0.00   1.60387   3 ;    C14-    O2-   C17-  HC11
    15     21     18     34      9     0.00   1.60387   3 ;    C14-    O2-   C17-  HC12
    16     15     14     26      9   180.00  15.16700   2 ;    C15-   C14-   C13-   HC4
    16     15     21     18      9   180.00   6.94544   2 ;    C15-   C14-    O2-   C17
    17     12      3     20      9   180.00   2.92880   2 ;    C16-   C11-    C2-    O1
    17     12     13     25      9   180.00  15.16700   2 ;    C16-   C11-   C12-   HC3
    17     16     15     21      9   180.00  15.16700   2 ;    C16-   C15-   C14-    O2
    19      1      2      3      9   180.00  12.02900   2 ;      O-     C-    C1-    C2
    19      1      2     22      9   180.00  12.02900   2 ;      O-     C-    C1-    HC
    19      1      5      4      9   180.00   2.42672   2 ;      O-     C-    C4-    C3
    19      1      5      6      9   180.00   2.42672   2 ;      O-     C-    C4-    C5
    20      3      2     22      9   180.00  16.73600   2 ;     O1-    C2-    C1-    HC
    20      4     11     24      9   180.00  15.16700   2 ;     O1-    C3-   C10-   HC2
    21     15     14     26      9   180.00  15.16700   2 ;     O2-   C14-   C13-   HC4
    21     15     16     27      9   180.00  15.16700   2 ;     O2-   C14-   C15-   HC5
    25     13     14     26      9   180.00  15.16700   2 ;    HC3-   C12-   C13-   HC4
    27     16     17     28      9   180.00  15.16700   2 ;    HC5-   C15-   C16-   HC6

[ dihedrals ] ; impropers
; treated as propers in GROMACS to use correct AMBER analytical function
;    i      j      k      l   func   phase     kd      pn
     1      3      2     22      4   180.00   4.60240   2 ;      C-    C2-    C1-    HC
     1      4      5      6      4   180.00   4.60240   2 ;      C-    C3-    C4-    C5
     4      9     11     24      4   180.00   4.60240   2 ;     C3-    C8-   C10-   HC2
     5      7      6     23      4   180.00   4.60240   2 ;     C4-    C6-    C5-   HC1
     5     11      4     20      4   180.00   4.60240   2 ;     C4-   C10-    C3-    O1
     6      9      7      8      4   180.00   4.60240   2 ;     C5-    C8-    C6-    C7
    10      7      9     11      4   180.00   4.60240   2 ;     C9-    C6-    C8-   C10
    12      2      3     20      4   180.00   4.60240   2 ;    C11-    C1-    C2-    O1
    12     14     13     25      4   180.00   4.60240   2 ;    C11-   C13-   C12-   HC3
    12     16     17     28      4   180.00   4.60240   2 ;    C11-   C15-   C16-   HC6
    13     15     14     26      4   180.00   4.60240   2 ;    C12-   C14-   C13-   HC4
    13     17     12      3      4   180.00   4.60240   2 ;    C12-   C16-   C11-    C2
    14     16     15     21      4   180.00   4.60240   2 ;    C13-   C15-   C14-    O2
    15     17     16     27      4   180.00   4.60240   2 ;    C14-   C16-   C15-   HC5
    19      1      2      5      4   180.00  43.93200   2 ;      O-     C-    C1-    C4
