LIG_GMX.gro created by acpype (v: 2023.10.27) on Thu Jul 30 20:14:48 2026
 41
    1  LIG    C    1   0.363   6.289   6.879
    1  LIG   C1    2   0.351   6.160   6.929
    1  LIG   C2    3   0.223   6.109   6.960
    1  LIG   C3    4   0.122   6.308   6.889
    1  LIG   C4    5   0.247   6.365   6.857
    1  LIG   C5    6   0.253   6.495   6.805
    1  LIG   C6    7   0.134   6.568   6.781
    1  LIG   C7    8   0.010   6.509   6.810
    1  LIG   C8    9   0.004   6.379   6.865
    1  LIG   C9   10   0.205   5.971   7.013
    1  LIG  C10   11   0.101   5.946   7.105
    1  LIG  C11   12   0.082   5.817   7.156
    1  LIG  C12   13   0.165   5.711   7.114
    1  LIG  C13   14   0.267   5.736   7.022
    1  LIG  C14   15   0.287   5.865   6.972
    1  LIG  C15   16   0.143   5.571   7.167
    1  LIG  C16   17  -0.004   5.547   7.197
    1  LIG  C17   18  -0.172   6.579   6.663
    1  LIG  C18   19   0.167   6.726   6.599
    1  LIG    O   20   0.473   6.334   6.853
    1  LIG   O1   21   0.115   6.185   6.939
    1  LIG   O2   22  -0.103   6.580   6.783
    1  LIG   O3   23   0.137   6.694   6.730
    1  LIG   HC   24   0.439   6.099   6.944
    1  LIG  HC1   25   0.348   6.540   6.782
    1  LIG  HC2   26  -0.091   6.335   6.889
    1  LIG  HC3   27   0.037   6.026   7.137
    1  LIG  HC4   28   0.003   5.798   7.228
    1  LIG  HC5   29   0.331   5.655   6.990
    1  LIG  HC6   30   0.367   5.883   6.902
    1  LIG  HC7   31   0.177   5.500   7.092
    1  LIG  HC8   32   0.201   5.558   7.258
    1  LIG  HC9   33   0.161   6.834   6.585
    1  LIG HC10   34   0.095   6.677   6.532
    1  LIG HC11   35   0.268   6.692   6.575
    1  LIG HC12   36  -0.021   5.440   7.210
    1  LIG HC13   37  -0.065   5.583   7.114
    1  LIG HC14   38  -0.032   5.599   7.289
    1  LIG HC15   39  -0.258   6.645   6.669
    1  LIG HC16   40  -0.105   6.614   6.583
    1  LIG HC17   41  -0.205   6.478   6.641
   14.62200    27.87800    15.12800
