; LIG_GMX.itp created by acpype (v: 2023.10.27) on Thu Jul 30 20:14:48 2026

[ atomtypes ]
;name   bond_type     mass     charge   ptype   sigma         epsilon       Amb
 c        c           0.00000  0.00000   A     3.31521e-01   4.13379e-01 ; 1.86  0.0988
 cc       cc          0.00000  0.00000   A     3.31521e-01   4.13379e-01 ; 1.86  0.0988
 cd       cd          0.00000  0.00000   A     3.31521e-01   4.13379e-01 ; 1.86  0.0988
 ca       ca          0.00000  0.00000   A     3.31521e-01   4.13379e-01 ; 1.86  0.0988
 c3       c3          0.00000  0.00000   A     3.39771e-01   4.51035e-01 ; 1.91  0.1078
 o        o           0.00000  0.00000   A     3.04812e-01   6.12119e-01 ; 1.71  0.1463
 os       os          0.00000  0.00000   A     3.15610e-01   3.03758e-01 ; 1.77  0.0726
 ha       ha          0.00000  0.00000   A     2.62548e-01   6.73624e-02 ; 1.47  0.0161
 hc       hc          0.00000  0.00000   A     2.60018e-01   8.70272e-02 ; 1.46  0.0208
 h1       h1          0.00000  0.00000   A     2.42200e-01   8.70272e-02 ; 1.36  0.0208

[ moleculetype ]
;name            nrexcl
 LIG              3

[ atoms ]
;   nr  type  resi  res  atom  cgnr     charge      mass       ; qtot   bond_type
     1    c     1   LIG     C    1     0.596900     12.01000 ; qtot 0.597
     2   cc     1   LIG    C1    2    -0.322200     12.01000 ; qtot 0.275
     3   cd     1   LIG    C2    3     0.200900     12.01000 ; qtot 0.476
     4   ca     1   LIG    C3    4     0.144100     12.01000 ; qtot 0.620
     5   ca     1   LIG    C4    5    -0.214600     12.01000 ; qtot 0.405
     6   ca     1   LIG    C5    6    -0.099000     12.01000 ; qtot 0.306
     7   ca     1   LIG    C6    7     0.036100     12.01000 ; qtot 0.342
     8   ca     1   LIG    C7    8     0.161100     12.01000 ; qtot 0.503
     9   ca     1   LIG    C8    9    -0.171000     12.01000 ; qtot 0.332
    10   ca     1   LIG    C9   10    -0.084800     12.01000 ; qtot 0.247
    11   ca     1   LIG   C10   11    -0.089000     12.01000 ; qtot 0.158
    12   ca     1   LIG   C11   12    -0.136500     12.01000 ; qtot 0.022
    13   ca     1   LIG   C12   13    -0.052300     12.01000 ; qtot -0.030
    14   ca     1   LIG   C13   14    -0.136500     12.01000 ; qtot -0.167
    15   ca     1   LIG   C14   15    -0.089000     12.01000 ; qtot -0.256
    16   c3     1   LIG   C15   16    -0.043100     12.01000 ; qtot -0.299
    17   c3     1   LIG   C16   17    -0.090100     12.01000 ; qtot -0.389
    18   c3     1   LIG   C17   18     0.123700     12.01000 ; qtot -0.265
    19   c3     1   LIG   C18   19     0.111700     12.01000 ; qtot -0.154
    20    o     1   LIG     O   20    -0.554100     16.00000 ; qtot -0.708
    21   os     1   LIG    O1   21    -0.221200     16.00000 ; qtot -0.929
    22   os     1   LIG    O2   22    -0.324900     16.00000 ; qtot -1.254
    23   os     1   LIG    O3   23    -0.336900     16.00000 ; qtot -1.591
    24   ha     1   LIG    HC   24     0.168000      1.00800 ; qtot -1.423
    25   ha     1   LIG   HC1   25     0.168000      1.00800 ; qtot -1.255
    26   ha     1   LIG   HC2   26     0.172000      1.00800 ; qtot -1.083
    27   ha     1   LIG   HC3   27     0.145500      1.00800 ; qtot -0.937
    28   ha     1   LIG   HC4   28     0.138000      1.00800 ; qtot -0.799
    29   ha     1   LIG   HC5   29     0.138000      1.00800 ; qtot -0.661
    30   ha     1   LIG   HC6   30     0.145500      1.00800 ; qtot -0.516
    31   hc     1   LIG   HC7   31     0.050700      1.00800 ; qtot -0.465
    32   hc     1   LIG   HC8   32     0.050700      1.00800 ; qtot -0.414
    33   h1     1   LIG   HC9   33     0.048700      1.00800 ; qtot -0.366
    34   h1     1   LIG  HC10   34     0.048700      1.00800 ; qtot -0.317
    35   h1     1   LIG  HC11   35     0.048700      1.00800 ; qtot -0.268
    36   hc     1   LIG  HC12   36     0.038367      1.00800 ; qtot -0.230
    37   hc     1   LIG  HC13   37     0.038367      1.00800 ; qtot -0.191
    38   hc     1   LIG  HC14   38     0.038367      1.00800 ; qtot -0.153
    39   h1     1   LIG  HC15   39     0.051033      1.00800 ; qtot -0.102
    40   h1     1   LIG  HC16   40     0.051033      1.00800 ; qtot -0.051
    41   h1     1   LIG  HC17   41     0.051033      1.00800 ; qtot -0.000

[ bonds ]
;   ai     aj funct   r             k
     1      2   1    1.4687e-01    2.3579e+05 ;      C - C1    
     1      5   1    1.4907e-01    2.1994e+05 ;      C - C4    
     1     20   1    1.2190e-01    4.9421e+05 ;      C - O     
     2      3   1    1.3730e-01    3.2321e+05 ;     C1 - C2    
     2     24   1    1.0838e-01    3.0470e+05 ;     C1 - HC    
     3     10   1    1.4610e-01    2.4166e+05 ;     C2 - C9    
     3     21   1    1.3608e-01    2.9530e+05 ;     C2 - O1    
     4      5   1    1.3986e-01    2.9644e+05 ;     C3 - C4    
     4      9   1    1.3986e-01    2.9644e+05 ;     C3 - C8    
     4     21   1    1.3688e-01    2.8731e+05 ;     C3 - O1    
     5      6   1    1.3986e-01    2.9644e+05 ;     C4 - C5    
     6      7   1    1.3986e-01    2.9644e+05 ;     C5 - C6    
     6     25   1    1.0860e-01    3.0183e+05 ;     C5 - HC1   
     7      8   1    1.3986e-01    2.9644e+05 ;     C6 - C7    
     7     23   1    1.3688e-01    2.8731e+05 ;     C6 - O3    
     8      9   1    1.3986e-01    2.9644e+05 ;     C7 - C8    
     8     22   1    1.3688e-01    2.8731e+05 ;     C7 - O2    
     9     26   1    1.0860e-01    3.0183e+05 ;     C8 - HC2   
    10     11   1    1.3986e-01    2.9644e+05 ;     C9 - C10   
    10     15   1    1.3986e-01    2.9644e+05 ;     C9 - C14   
    11     12   1    1.3986e-01    2.9644e+05 ;    C10 - C11   
    11     27   1    1.0860e-01    3.0183e+05 ;    C10 - HC3   
    12     13   1    1.3986e-01    2.9644e+05 ;    C11 - C12   
    12     28   1    1.0860e-01    3.0183e+05 ;    C11 - HC4   
    13     14   1    1.3986e-01    2.9644e+05 ;    C12 - C13   
    13     16   1    1.5147e-01    2.0410e+05 ;    C12 - C15   
    14     15   1    1.3986e-01    2.9644e+05 ;    C13 - C14   
    14     29   1    1.0860e-01    3.0183e+05 ;    C13 - HC5   
    15     30   1    1.0860e-01    3.0183e+05 ;    C14 - HC6   
    16     17   1    1.5354e-01    1.9154e+05 ;    C15 - C16   
    16     31   1    1.0962e-01    2.8891e+05 ;    C15 - HC7   
    16     32   1    1.0962e-01    2.8891e+05 ;    C15 - HC8   
    17     36   1    1.0962e-01    2.8891e+05 ;    C16 - HC12  
    17     37   1    1.0962e-01    2.8891e+05 ;    C16 - HC13  
    17     38   1    1.0962e-01    2.8891e+05 ;    C16 - HC14  
    18     22   1    1.4273e-01    2.3620e+05 ;    C17 - O2    
    18     39   1    1.0969e-01    2.8804e+05 ;    C17 - HC15  
    18     40   1    1.0969e-01    2.8804e+05 ;    C17 - HC16  
    18     41   1    1.0969e-01    2.8804e+05 ;    C17 - HC17  
    19     23   1    1.4273e-01    2.3620e+05 ;    C18 - O3    
    19     33   1    1.0969e-01    2.8804e+05 ;    C18 - HC9   
    19     34   1    1.0969e-01    2.8804e+05 ;    C18 - HC10  
    19     35   1    1.0969e-01    2.8804e+05 ;    C18 - HC11  

[ pairs ]
;   ai     aj    funct
     1      7      1 ;      C - C6    
     1      9      1 ;      C - C8    
     1     10      1 ;      C - C9    
     1     21      1 ;      C - O1    
     1     25      1 ;      C - HC1   
     2      4      1 ;     C1 - C3    
     2      6      1 ;     C1 - C5    
     2     11      1 ;     C1 - C10   
     2     15      1 ;     C1 - C14   
     3      9      1 ;     C2 - C8    
     3     12      1 ;     C2 - C11   
     3     14      1 ;     C2 - C13   
     3     27      1 ;     C2 - HC3   
     3     30      1 ;     C2 - HC6   
     4      7      1 ;     C3 - C6    
     4     10      1 ;     C3 - C9    
     4     22      1 ;     C3 - O2    
     4     25      1 ;     C3 - HC1   
     5      3      1 ;     C4 - C2    
     5      8      1 ;     C4 - C7    
     5     23      1 ;     C4 - O3    
     5     24      1 ;     C4 - HC    
     5     26      1 ;     C4 - HC2   
     6      9      1 ;     C5 - C8    
     6     19      1 ;     C5 - C18   
     6     21      1 ;     C5 - O1    
     6     22      1 ;     C5 - O2    
     7     18      1 ;     C6 - C17   
     7     26      1 ;     C6 - HC2   
     7     33      1 ;     C6 - HC9   
     7     34      1 ;     C6 - HC10  
     7     35      1 ;     C6 - HC11  
     8     19      1 ;     C7 - C18   
     8     21      1 ;     C7 - O1    
     8     25      1 ;     C7 - HC1   
     8     39      1 ;     C7 - HC15  
     8     40      1 ;     C7 - HC16  
     8     41      1 ;     C7 - HC17  
     9     18      1 ;     C8 - C17   
     9     23      1 ;     C8 - O3    
    10     13      1 ;     C9 - C12   
    10     24      1 ;     C9 - HC    
    10     28      1 ;     C9 - HC4   
    10     29      1 ;     C9 - HC5   
    11     14      1 ;    C10 - C13   
    11     16      1 ;    C10 - C15   
    11     21      1 ;    C10 - O1    
    11     30      1 ;    C10 - HC6   
    12     15      1 ;    C11 - C14   
    12     17      1 ;    C11 - C16   
    12     29      1 ;    C11 - HC5   
    12     31      1 ;    C11 - HC7   
    12     32      1 ;    C11 - HC8   
    13     27      1 ;    C12 - HC3   
    13     30      1 ;    C12 - HC6   
    13     36      1 ;    C12 - HC12  
    13     37      1 ;    C12 - HC13  
    13     38      1 ;    C12 - HC14  
    14     17      1 ;    C13 - C16   
    14     28      1 ;    C13 - HC4   
    14     31      1 ;    C13 - HC7   
    14     32      1 ;    C13 - HC8   
    15     16      1 ;    C14 - C15   
    15     21      1 ;    C14 - O1    
    15     27      1 ;    C14 - HC3   
    16     28      1 ;    C15 - HC4   
    16     29      1 ;    C15 - HC5   
    20      3      1 ;      O - C2    
    20      4      1 ;      O - C3    
    20      6      1 ;      O - C5    
    20     24      1 ;      O - HC    
    21     24      1 ;     O1 - HC    
    21     26      1 ;     O1 - HC2   
    22     23      1 ;     O2 - O3    
    22     26      1 ;     O2 - HC2   
    23     25      1 ;     O3 - HC1   
    27     28      1 ;    HC3 - HC4   
    29     30      1 ;    HC5 - HC6   
    31     36      1 ;    HC7 - HC12  
    31     37      1 ;    HC7 - HC13  
    31     38      1 ;    HC7 - HC14  
    32     36      1 ;    HC8 - HC12  
    32     37      1 ;    HC8 - HC13  
    32     38      1 ;    HC8 - HC14  

[ angles ]
;   ai     aj     ak    funct   theta         cth
     1      2      3      1    1.2132e+02    5.2049e+02 ;      C - C1     - C2    
     1      2     24      1    1.1681e+02    3.6543e+02 ;      C - C1     - HC    
     1      5      4      1    1.2033e+02    5.1413e+02 ;      C - C4     - C3    
     1      5      6      1    1.2033e+02    5.1413e+02 ;      C - C4     - C5    
     2      1      5      1    1.1533e+02    5.1371e+02 ;     C1 - C      - C4    
     2      1     20      1    1.2406e+02    6.5572e+02 ;     C1 - C      - O     
     2      3     10      1    1.2429e+02    5.1580e+02 ;     C1 - C2     - C9    
     2      3     21      1    1.1671e+02    6.7613e+02 ;     C1 - C2     - O1    
     3      2     24      1    1.2140e+02    3.7907e+02 ;     C2 - C1     - HC    
     3     10     11      1    1.2083e+02    5.1898e+02 ;     C2 - C9     - C10   
     3     10     15      1    1.2083e+02    5.1898e+02 ;     C2 - C9     - C14   
     3     21      4      1    1.1986e+02    7.5253e+02 ;     C2 - O1     - C3    
     4      5      6      1    1.2002e+02    5.3279e+02 ;     C3 - C4     - C5    
     4      9      8      1    1.2002e+02    5.3279e+02 ;     C3 - C8     - C7    
     4      9     26      1    1.1988e+02    3.7572e+02 ;     C3 - C8     - HC2   
     5      1     20      1    1.2260e+02    6.5237e+02 ;     C4 - C      - O     
     5      4      9      1    1.2002e+02    5.3279e+02 ;     C4 - C3     - C8    
     5      4     21      1    1.1911e+02    6.6107e+02 ;     C4 - C3     - O1    
     5      6      7      1    1.2002e+02    5.3279e+02 ;     C4 - C5     - C6    
     5      6     25      1    1.1988e+02    3.7572e+02 ;     C4 - C5     - HC1   
     6      7      8      1    1.2002e+02    5.3279e+02 ;     C5 - C6     - C7    
     6      7     23      1    1.1911e+02    6.6107e+02 ;     C5 - C6     - O3    
     7      6     25      1    1.1988e+02    3.7572e+02 ;     C6 - C5     - HC1   
     7      8      9      1    1.2002e+02    5.3279e+02 ;     C6 - C7     - C8    
     7      8     22      1    1.1911e+02    6.6107e+02 ;     C6 - C7     - O2    
     7     23     19      1    1.1839e+02    7.3856e+02 ;     C6 - O3     - C18   
     8      7     23      1    1.1911e+02    6.6107e+02 ;     C7 - C6     - O3    
     8      9     26      1    1.1988e+02    3.7572e+02 ;     C7 - C8     - HC2   
     8     22     18      1    1.1839e+02    7.3856e+02 ;     C7 - O2     - C17   
     9      4     21      1    1.1911e+02    6.6107e+02 ;     C8 - C3     - O1    
     9      8     22      1    1.1911e+02    6.6107e+02 ;     C8 - C7     - O2    
    10      3     21      1    1.1368e+02    6.6208e+02 ;     C9 - C2     - O1    
    10     11     12      1    1.2002e+02    5.3279e+02 ;     C9 - C10    - C11   
    10     11     27      1    1.1988e+02    3.7572e+02 ;     C9 - C10    - HC3   
    10     15     14      1    1.2002e+02    5.3279e+02 ;     C9 - C14    - C13   
    10     15     30      1    1.1988e+02    3.7572e+02 ;     C9 - C14    - HC6   
    11     10     15      1    1.2002e+02    5.3279e+02 ;    C10 - C9     - C14   
    11     12     13      1    1.2002e+02    5.3279e+02 ;    C10 - C11    - C12   
    11     12     28      1    1.1988e+02    3.7572e+02 ;    C10 - C11    - HC4   
    12     11     27      1    1.1988e+02    3.7572e+02 ;    C11 - C10    - HC3   
    12     13     14      1    1.2002e+02    5.3279e+02 ;    C11 - C12    - C13   
    12     13     16      1    1.2083e+02    5.0827e+02 ;    C11 - C12    - C15   
    13     12     28      1    1.1988e+02    3.7572e+02 ;    C12 - C11    - HC4   
    13     14     15      1    1.2002e+02    5.3279e+02 ;    C12 - C13    - C14   
    13     14     29      1    1.1988e+02    3.7572e+02 ;    C12 - C13    - HC5   
    13     16     17      1    1.1242e+02    5.0484e+02 ;    C12 - C15    - C16   
    13     16     31      1    1.1063e+02    3.6493e+02 ;    C12 - C15    - HC7   
    13     16     32      1    1.1063e+02    3.6493e+02 ;    C12 - C15    - HC8   
    14     13     16      1    1.2083e+02    5.0827e+02 ;    C13 - C12    - C15   
    14     15     30      1    1.1988e+02    3.7572e+02 ;    C13 - C14    - HC6   
    15     14     29      1    1.1988e+02    3.7572e+02 ;    C14 - C13    - HC5   
    16     17     36      1    1.0968e+02    3.6208e+02 ;    C15 - C16    - HC12  
    16     17     37      1    1.0968e+02    3.6208e+02 ;    C15 - C16    - HC13  
    16     17     38      1    1.0968e+02    3.6208e+02 ;    C15 - C16    - HC14  
    17     16     31      1    1.0968e+02    3.6208e+02 ;    C16 - C15    - HC7   
    17     16     32      1    1.0968e+02    3.6208e+02 ;    C16 - C15    - HC8   
    22     18     39      1    1.1034e+02    4.7028e+02 ;     O2 - C17    - HC15  
    22     18     40      1    1.1034e+02    4.7028e+02 ;     O2 - C17    - HC16  
    22     18     41      1    1.1034e+02    4.7028e+02 ;     O2 - C17    - HC17  
    23     19     33      1    1.1034e+02    4.7028e+02 ;     O3 - C18    - HC9   
    23     19     34      1    1.1034e+02    4.7028e+02 ;     O3 - C18    - HC10  
    23     19     35      1    1.1034e+02    4.7028e+02 ;     O3 - C18    - HC11  
    31     16     32      1    1.0773e+02    2.9957e+02 ;    HC7 - C15    - HC8   
    33     19     34      1    1.0855e+02    2.9824e+02 ;    HC9 - C18    - HC10  
    33     19     35      1    1.0855e+02    2.9824e+02 ;    HC9 - C18    - HC11  
    34     19     35      1    1.0855e+02    2.9824e+02 ;   HC10 - C18    - HC11  
    36     17     37      1    1.0773e+02    2.9957e+02 ;   HC12 - C16    - HC13  
    36     17     38      1    1.0773e+02    2.9957e+02 ;   HC12 - C16    - HC14  
    37     17     38      1    1.0773e+02    2.9957e+02 ;   HC13 - C16    - HC14  
    39     18     40      1    1.0855e+02    2.9824e+02 ;   HC15 - C17    - HC16  
    39     18     41      1    1.0855e+02    2.9824e+02 ;   HC15 - C17    - HC17  
    40     18     41      1    1.0855e+02    2.9824e+02 ;   HC16 - C17    - HC17  

[ dihedrals ] ; propers
; for gromacs 4.5 or higher, using funct 9
;    i      j      k      l   func   phase     kd      pn
     1      2      3     10      9   180.00  16.73600   2 ;      C-    C1-    C2-    C9
     1      2      3     21      9   180.00  16.73600   2 ;      C-    C1-    C2-    O1
     1      5      4      9      9   180.00  15.16700   2 ;      C-    C4-    C3-    C8
     1      5      4     21      9   180.00  15.16700   2 ;      C-    C4-    C3-    O1
     1      5      6      7      9   180.00  15.16700   2 ;      C-    C4-    C5-    C6
     1      5      6     25      9   180.00  15.16700   2 ;      C-    C4-    C5-   HC1
     2      1      5      4      9   180.00   7.93914   2 ;     C1-     C-    C4-    C3
     2      1      5      6      9   180.00   7.93914   2 ;     C1-     C-    C4-    C5
     2      3     10     11      9   180.00  15.77368   2 ;     C1-    C2-    C9-   C10
     2      3     10     15      9   180.00  15.77368   2 ;     C1-    C2-    C9-   C14
     2      3     21      4      9   180.00   2.71960   1 ;     C1-    C2-    O1-    C3
     3     10     11     12      9   180.00  15.16700   2 ;     C2-    C9-   C10-   C11
     3     10     11     27      9   180.00  15.16700   2 ;     C2-    C9-   C10-   HC3
     3     10     15     14      9   180.00  15.16700   2 ;     C2-    C9-   C14-   C13
     3     10     15     30      9   180.00  15.16700   2 ;     C2-    C9-   C14-   HC6
     3     21      4      5      9   180.00   3.76560   2 ;     C2-    O1-    C3-    C4
     3     21      4      9      9   180.00   3.76560   2 ;     C2-    O1-    C3-    C8
     4      5      6      7      9   180.00  15.16700   2 ;     C3-    C4-    C5-    C6
     4      5      6     25      9   180.00  15.16700   2 ;     C3-    C4-    C5-   HC1
     4      9      8      7      9   180.00  15.16700   2 ;     C3-    C8-    C7-    C6
     4      9      8     22      9   180.00  15.16700   2 ;     C3-    C8-    C7-    O2
     4     21      3     10      9   180.00   2.71960   1 ;     C3-    O1-    C2-    C9
     5      1      2      3      9     0.00   8.89100   2 ;     C4-     C-    C1-    C2
     5      1      2      3      9   180.00   1.04600   3 ;     C4-     C-    C1-    C2
     5      1      2      3      9   180.00  14.56032   1 ;     C4-     C-    C1-    C2
     5      1      2     24      9   180.00  12.02900   2 ;     C4-     C-    C1-    HC
     5      4      9      8      9   180.00  15.16700   2 ;     C4-    C3-    C8-    C7
     5      4      9     26      9   180.00  15.16700   2 ;     C4-    C3-    C8-   HC2
     5      6      7      8      9   180.00  15.16700   2 ;     C4-    C5-    C6-    C7
     5      6      7     23      9   180.00  15.16700   2 ;     C4-    C5-    C6-    O3
     6      5      4      9      9   180.00  15.16700   2 ;     C5-    C4-    C3-    C8
     6      5      4     21      9   180.00  15.16700   2 ;     C5-    C4-    C3-    O1
     6      7      8      9      9   180.00  15.16700   2 ;     C5-    C6-    C7-    C8
     6      7      8     22      9   180.00  15.16700   2 ;     C5-    C6-    C7-    O2
     6      7     23     19      9   180.00   6.94544   2 ;     C5-    C6-    O3-   C18
     7      8      9     26      9   180.00  15.16700   2 ;     C6-    C7-    C8-   HC2
     7      8     22     18      9   180.00   6.94544   2 ;     C6-    C7-    O2-   C17
     7     23     19     33      9     0.00   1.60387   3 ;     C6-    O3-   C18-   HC9
     7     23     19     34      9     0.00   1.60387   3 ;     C6-    O3-   C18-  HC10
     7     23     19     35      9     0.00   1.60387   3 ;     C6-    O3-   C18-  HC11
     8      7      6     25      9   180.00  15.16700   2 ;     C7-    C6-    C5-   HC1
     8      7     23     19      9   180.00   6.94544   2 ;     C7-    C6-    O3-   C18
     8      9      4     21      9   180.00  15.16700   2 ;     C7-    C8-    C3-    O1
     8     22     18     39      9     0.00   1.60387   3 ;     C7-    O2-   C17-  HC15
     8     22     18     40      9     0.00   1.60387   3 ;     C7-    O2-   C17-  HC16
     8     22     18     41      9     0.00   1.60387   3 ;     C7-    O2-   C17-  HC17
     9      8      7     23      9   180.00  15.16700   2 ;     C8-    C7-    C6-    O3
     9      8     22     18      9   180.00   6.94544   2 ;     C8-    C7-    O2-   C17
    10      3      2     24      9   180.00  16.73600   2 ;     C9-    C2-    C1-    HC
    10     11     12     13      9   180.00  15.16700   2 ;     C9-   C10-   C11-   C12
    10     11     12     28      9   180.00  15.16700   2 ;     C9-   C10-   C11-   HC4
    10     15     14     13      9   180.00  15.16700   2 ;     C9-   C14-   C13-   C12
    10     15     14     29      9   180.00  15.16700   2 ;     C9-   C14-   C13-   HC5
    11     10      3     21      9   180.00   2.92880   2 ;    C10-    C9-    C2-    O1
    11     10     15     14      9   180.00  15.16700   2 ;    C10-    C9-   C14-   C13
    11     10     15     30      9   180.00  15.16700   2 ;    C10-    C9-   C14-   HC6
    11     12     13     14      9   180.00  15.16700   2 ;    C10-   C11-   C12-   C13
    11     12     13     16      9   180.00  15.16700   2 ;    C10-   C11-   C12-   C15
    12     11     10     15      9   180.00  15.16700   2 ;    C11-   C10-    C9-   C14
    12     13     14     15      9   180.00  15.16700   2 ;    C11-   C12-   C13-   C14
    12     13     14     29      9   180.00  15.16700   2 ;    C11-   C12-   C13-   HC5
    12     13     16     17      9   180.00   1.00416   2 ;    C11-   C12-   C15-   C16
    12     13     16     31      9     0.00   0.00000   0 ;    C11-   C12-   C15-   HC7
    12     13     16     32      9     0.00   0.00000   0 ;    C11-   C12-   C15-   HC8
    13     12     11     27      9   180.00  15.16700   2 ;    C12-   C11-   C10-   HC3
    13     14     15     30      9   180.00  15.16700   2 ;    C12-   C13-   C14-   HC6
    13     16     17     36      9     0.00   0.65084   3 ;    C12-   C15-   C16-  HC12
    13     16     17     37      9     0.00   0.65084   3 ;    C12-   C15-   C16-  HC13
    13     16     17     38      9     0.00   0.65084   3 ;    C12-   C15-   C16-  HC14
    14     13     12     28      9   180.00  15.16700   2 ;    C13-   C12-   C11-   HC4
    14     13     16     17      9   180.00   1.00416   2 ;    C13-   C12-   C15-   C16
    14     13     16     31      9     0.00   0.00000   0 ;    C13-   C12-   C15-   HC7
    14     13     16     32      9     0.00   0.00000   0 ;    C13-   C12-   C15-   HC8
    15     10      3     21      9   180.00   2.92880   2 ;    C14-    C9-    C2-    O1
    15     10     11     27      9   180.00  15.16700   2 ;    C14-    C9-   C10-   HC3
    15     14     13     16      9   180.00  15.16700   2 ;    C14-   C13-   C12-   C15
    16     13     12     28      9   180.00  15.16700   2 ;    C15-   C12-   C11-   HC4
    16     13     14     29      9   180.00  15.16700   2 ;    C15-   C12-   C13-   HC5
    20      1      2      3      9   180.00  12.02900   2 ;      O-     C-    C1-    C2
    20      1      2     24      9   180.00  12.02900   2 ;      O-     C-    C1-    HC
    20      1      5      4      9   180.00   2.42672   2 ;      O-     C-    C4-    C3
    20      1      5      6      9   180.00   2.42672   2 ;      O-     C-    C4-    C5
    21      3      2     24      9   180.00  16.73600   2 ;     O1-    C2-    C1-    HC
    21      4      9     26      9   180.00  15.16700   2 ;     O1-    C3-    C8-   HC2
    22      8      7     23      9   180.00  15.16700   2 ;     O2-    C7-    C6-    O3
    22      8      9     26      9   180.00  15.16700   2 ;     O2-    C7-    C8-   HC2
    23      7      6     25      9   180.00  15.16700   2 ;     O3-    C6-    C5-   HC1
    27     11     12     28      9   180.00  15.16700   2 ;    HC3-   C10-   C11-   HC4
    29     14     15     30      9   180.00  15.16700   2 ;    HC5-   C13-   C14-   HC6
    31     16     17     36      9     0.00   0.50208   3 ;    HC7-   C15-   C16-  HC12
    31     16     17     37      9     0.00   0.50208   3 ;    HC7-   C15-   C16-  HC13
    31     16     17     38      9     0.00   0.50208   3 ;    HC7-   C15-   C16-  HC14
    32     16     17     36      9     0.00   0.50208   3 ;    HC8-   C15-   C16-  HC12
    32     16     17     37      9     0.00   0.50208   3 ;    HC8-   C15-   C16-  HC13
    32     16     17     38      9     0.00   0.50208   3 ;    HC8-   C15-   C16-  HC14

[ dihedrals ] ; impropers
; treated as propers in GROMACS to use correct AMBER analytical function
;    i      j      k      l   func   phase     kd      pn
     1      3      2     24      4   180.00   4.60240   2 ;      C-    C2-    C1-    HC
     1      4      5      6      4   180.00   4.60240   2 ;      C-    C3-    C4-    C5
     4      8      9     26      4   180.00   4.60240   2 ;     C3-    C7-    C8-   HC2
     5      7      6     25      4   180.00   4.60240   2 ;     C4-    C6-    C5-   HC1
     5      9      4     21      4   180.00   4.60240   2 ;     C4-    C8-    C3-    O1
     6      8      7     23      4   180.00   4.60240   2 ;     C5-    C7-    C6-    O3
     7      9      8     22      4   180.00   4.60240   2 ;     C6-    C8-    C7-    O2
    10      2      3     21      4   180.00   4.60240   2 ;     C9-    C1-    C2-    O1
    10     12     11     27      4   180.00   4.60240   2 ;     C9-   C11-   C10-   HC3
    10     14     15     30      4   180.00   4.60240   2 ;     C9-   C13-   C14-   HC6
    11     13     12     28      4   180.00   4.60240   2 ;    C10-   C12-   C11-   HC4
    11     15     10      3      4   180.00   4.60240   2 ;    C10-   C14-    C9-    C2
    12     14     13     16      4   180.00   4.60240   2 ;    C11-   C13-   C12-   C15
    13     15     14     29      4   180.00   4.60240   2 ;    C12-   C14-   C13-   HC5
    20      1      2      5      4   180.00  43.93200   2 ;      O-     C-    C1-    C4
